Water

192 atoms
2 atom types

0.0 12.45 xlo xhi
0.0 12.45 ylo yhi
0.0 12.45 zlo zhi

Masses

1 15.999
2  2.018

Atoms

 1  1   9.08698200   8.51086900  11.88521000
 2  1   8.52546800   5.93355100   6.67628900
 3  1   7.48598600  12.27081000   8.45154500
 4  1   4.35082300   5.07436700   7.68392600
 5  1   8.75464400   3.93124300   4.86756600
 6  1   1.29740400   6.74104200   2.83177300
 7  1   5.18735600   2.56855100   1.12630600
 8  1  11.01079000   1.26739000   1.12512100
 9  1   5.02301400   4.75636700   4.49345800
10  1   6.50191800   0.34620690   3.00655900
11  1   5.27729900  11.70286000   0.48002170
12  1   5.88930000   7.60973600   2.44410800
13  1   0.91729560   6.20484400   5.91357600
14  1   0.93792620   6.03348700   0.29262210
15  1  11.06102000   6.01533200   9.09243200
16  1   3.69777600   5.46317200   0.93796420
17  1   3.10481100   8.85821100  11.39390000
18  1   5.10271200  12.09019000  10.30452000
19  1  12.30645000  10.25297000   7.17995100
20  1  11.46197000   2.51603500   8.49996100
21  1   1.48868400   0.14897960   6.29853900
22  1   8.99986900   4.44651400  11.11264000
23  1   1.20106000   0.89007160  11.89308000
24  1   3.30672900   0.56332680   1.36412300
25  1   6.46535800   9.80068000   8.41660600
26  1   5.19449200   2.52043500  10.82673000
27  1   6.55396800   2.68656400   4.63798900
28  1  11.13973000   0.05119359   5.24387700
29  1   2.60365100  12.37658000   8.84572100
30  1   1.21571900   3.52040700   9.77002500
31  1  11.45874000   9.03030200   1.68247400
32  1  10.85689000   7.92163200   6.45180400
33  1   9.19343300   0.09809960   3.14166700
34  1   7.45404700   2.51566000   9.17135300
35  1  12.00013000  12.11540000   9.45272500
36  1   1.31326800  10.55291000   2.77509700
37  1   4.73061300   1.51208900   6.14098800
38  1   5.78558600  10.19373000   4.22265600
39  1   8.83682500   9.06654100   5.12498000
40  1   1.22261000   9.23769200   5.20345800
41  1  11.47016000   4.56957500   6.33466200
42  1   4.64717500  10.70004000   6.53754400
43  1   8.20863100  11.60415000   5.76742400
44  1   9.37301900   5.58506600   2.63623600
45  1   3.17871600   0.03082356   4.27195300
46  1   6.91065200   9.55698900   0.77751050
47  1   5.71815900   8.34510300  10.70856000
48  1  11.17963000   9.38326300   9.88034100
49  1   2.44541700   4.73382400   3.93996600
50  1  11.35472000   3.08999700   3.92846400
51  1   6.20899100   6.13148700   9.55696500
52  1  11.29134000   7.13014600   3.89622400
53  1   3.42456700   8.77626500   1.91021600
54  1   0.97066590   7.61597800  10.37047000
55  1   1.98187700   6.08294100   8.43576300
56  1   9.10365200   0.23486360  10.64222000
57  1   1.57527600   2.81795200   6.32908000
58  1   3.44248400   2.48991400   8.74588300
59  1   7.69724000   6.27720000   0.40050780
60  1   8.04947000   1.11591800   0.59700980
61  1   9.13632400  10.00912000   2.62633800
62  1  10.96452000   4.17735900   0.93414700
63  1   6.32324000   7.12506800   4.96524900
64  1   0.98270820   2.66417700   2.15669800
65  2   8.64691600   9.33847000  11.84499000
66  2   9.42457100   8.18276400  11.05138000
67  2   8.65741000   5.00340900   6.26682900
68  2   7.83410800   5.81493400   7.29618600
69  2   6.84617900  11.69758000   8.79097700
70  2   7.46922700  12.31001000   7.42785300
71  2   4.86522500   5.45573600   6.92929900
72  2   3.64653000   5.54817600   7.91290900
73  2   7.96361300   3.42662100   5.00959300
74  2   9.50014900   3.40772900   4.54010700
75  2   1.87205600   7.50788600   2.57094400
76  2   0.96829760   6.45388400   1.96006700
77  2   4.78804700   3.43949300   1.47054300
78  2   4.42310900   1.98135500   1.23072600
79  2  10.04909000   1.18648000   0.88294510
80  2  11.01596000   0.85739520   1.96831500
81  2   4.12486300   4.70991900   4.19827000
82  2   5.43676500   3.89120200   4.35095700
83  2   6.41008300   0.26493160   2.03199900
84  2   6.12086500  11.95956000   3.38337000
85  2   4.53643400  12.07978000   0.89477100
86  2   5.52852500  10.89850000   0.95116070
87  2   6.33096100   6.87681100   1.97649300
88  2   6.09863500   7.51493800   3.51515000
89  2   0.82319630   7.10565900   5.64881300
90  2   1.48950600   6.19317000   6.70800700
91  2   0.18111040   5.38108400   0.30741740
92  2   0.95305990   6.37460200  11.76804000
93  2  11.92911000   5.91968600   9.50702100
94  2  11.25725000   5.94814700   8.20331000
95  2   3.04216300   5.62080800   0.26342600
96  2   3.93739200   6.36607600   1.19168700
97  2   3.35214000   9.83633600  11.49906000
98  2   3.96585300   8.47643200  11.20297000
99  2   5.04008900   0.57525600  10.40400000
100  2   5.32749800  11.84563000  11.24185000
101  2  11.53424000  10.25519000   6.55150200
102  2   0.39693680   9.67586400   6.62009100
103  2  10.77768000   3.17284000   8.59873100
104  2  11.09748000   1.71380700   8.84685500
105  2   1.99368700  12.27545000   7.03448500
106  2   0.66109860  12.21908000   6.55160600
107  2   9.46584700   4.70182100  10.28711000
108  2   9.77537400   4.24743000  11.70959000
109  2   0.53245630   1.06178100   0.15079610
110  2   1.25614000   1.72802400  11.38873000
111  2   2.62160200   0.75201300   0.66059910
112  2   2.81164900   0.36548880   2.18784700
113  2   6.33261900   9.20981400   9.20633800
114  2   7.17308800   9.41080400   7.84608200
115  2   6.05937200   2.83174000  10.61463000
116  2   5.07705700   2.67147300  11.83233000
117  2   6.58468700   2.00658100   3.89099900
118  2   5.86474900   2.29981500   5.28630400
119  2  10.86910000   0.78004930   5.82201500
120  2  10.52457000   0.11442470   4.54066800
121  2   2.71667000   0.86087320   8.73896100
122  2   3.44243500  12.14066000   9.18130800
123  2   0.41007740   3.14074700   9.35922000
124  2   1.93487900   3.02447900   9.39725800
125  2  11.43590000   8.32031000   2.33762600
126  2  11.03588000   8.76459100   0.88301500
127  2  10.17046000   7.30350800   6.73611100
128  2  11.18854000   7.60739300   5.54092400
129  2   8.26253800   0.28965980   2.92486900
130  2   9.28459600  11.55956000   2.96869900
131  2   8.11466000   2.49796100   9.87456100
132  2   7.33332800   1.47646500   9.00866100
133  2   0.30779850  12.39703000   9.93380000
134  2  12.23646000  11.39461000   8.85069200
135  2   0.52937390  10.37887000   2.22039200
136  2   2.02505800  10.03683000   2.32994600
137  2   4.48593600   1.80419400   7.01601800
138  2   4.01539600   1.37980900   5.54066200
139  2   5.30600300  10.14835000   5.09029200
140  2   6.44626600   9.49145800   4.24020100
141  2   8.72751400   9.98745600   5.39974000
142  2   9.61297600   8.69345200   5.72934500
143  2   0.87370510   9.66720100   4.42739300
144  2   1.96017800   9.78623400   5.49620800
145  2  12.09132000   5.24633400   6.04793800
146  2  11.99233000   3.86690000   6.79689400
147  2   4.73940700  11.61127000   6.78552000
148  2   5.00465500  10.28701000   7.29014200
149  2   7.30472600  11.46661000   5.49247800
150  2   8.53592200  12.05749000   4.96019400
151  2   8.68851500   5.74600800   1.92233100
152  2   8.89545300   4.96363100   3.22972700
153  2   2.40351300  12.35488000   4.84162100
154  2   3.74193300  11.71195000   4.29944000
155  2   7.07144000   8.79023200   1.40665200
156  2   7.54103600  10.22540000   1.13644900
157  2   5.92823100   7.42404600  10.54105000
158  2   6.04361900   8.47295900  11.61644000
159  2  11.22306000   9.40102400   8.89129300
160  2  11.26054000  10.31624000  10.10767000
161  2   1.97243700   5.30522000   4.53087700
162  2   2.35210200   5.10805900   3.09532000
163  2  11.13662000   3.90941000   3.45043900
164  2  11.44591000   3.51869400   4.83709600
165  2   5.58173600   5.69197400   8.92969200
166  2   6.61257500   5.38464500  10.04083000
167  2  10.52367000   6.79583300   3.37848300
168  2  12.11727000   6.73828000   3.56257600
169  2   4.25037700   8.37208000   2.27261300
170  2   3.58774200   8.87653900   0.99948180
171  2   0.14983190   8.25673300  10.23693000
172  2   1.65861700   8.25593300  10.74105000
173  2   1.87182200   5.40766000   9.05737400
174  2   1.53888000   6.84659400   8.81915600
175  2  10.03426000  12.41403000  10.43411000
176  2   8.61291900   0.05580696   9.82216100
177  2   1.67426800   3.15355500   5.42060800
178  2   1.40810000   1.86837500   6.29856400
179  2   4.03871200   2.72180800   9.52684700
180  2   3.59685800   3.11730200   8.01358300
181  2   8.09449500   7.08677600   0.01227782
182  2   8.11607100   5.58442500  12.22488000
183  2   8.33988400   0.83976060  12.16647000
184  2   7.54294800   1.85044400   0.37295740
185  2   8.99447500   9.53030600   3.52290300
186  2  10.04612000   9.65086300   2.28700600
187  2  10.15155000   4.43378500   1.52774500
188  2  11.35362000   3.22742600   1.07332900
189  2   5.91736400   6.19247300   4.80722000
190  2   7.23634000   7.08644200   5.37284400
191  2   0.52387720   2.31851300   2.92820000
192  2   1.72718100   3.16840400   2.59353700
