DPLR conf script

4096 atoms
3 atom types
1024 bonds
1 bond types

0.0 31.28 xlo xhi
0.0 31.28 ylo yhi
0.0 31.28 zlo zhi

Masses

1 15.999
2 2.014 
3 15.999

Atoms

1 1 1 6 10.285 6.56285 28.0837
2 2 1 6 1.66718 17.8754 10.3546
3 3 1 6 3.7019 31.6908 30.3272
4 4 1 6 20.4253 28.0654 22.4443
5 5 1 6 2.10572 27.8056 6.83261
6 6 1 6 15.8951 25.9162 26.2515
7 7 1 6 28.5091 2.43879 9.64469
8 8 1 6 7.71891 28.5406 0.71986
9 9 1 6 3.52684 30.0601 25.8038
10 10 1 6 9.38742 11.1367 14.0767
11 11 1 6 1.74389 12.094 26.8977
12 12 1 6 30.1361 0.759047 17.3525
13 13 1 6 10.2796 0.506227 23.2536
14 14 1 6 5.82026 8.24634 13.2112
15 15 1 6 4.03946 23.8787 6.37743
16 16 1 6 15.179 23.7698 10.3047
17 17 1 6 13.3355 16.6585 10.5909
18 18 1 6 4.59294 22.0542 12.8106
19 19 1 6 20.0 11.3131 29.1087
20 20 1 6 15.2089 18.4222 6.26877
21 21 1 6 31.441 0.300838 9.84185
22 22 1 6 11.7498 13.8537 17.3971
23 23 1 6 10.2927 8.12159 18.2741
24 24 1 6 18.4285 17.4182 19.1906
25 25 1 6 12.8087 16.2027 19.2185
26 26 1 6 14.1549 22.1535 19.8057
27 27 1 6 4.52085 29.2342 5.74671
28 28 1 6 12.4908 1.11624 2.57615
29 29 1 6 0.0792348 7.29164 18.7967
30 30 1 6 10.4562 26.7147 3.55142
31 31 1 6 19.8338 7.53596 18.3041
32 32 1 6 26.5611 18.9806 5.54303
33 33 1 6 0.774425 11.2021 29.2487
34 34 1 6 25.7 27.126 20.2575
35 35 1 6 4.02257 2.22996 14.9202
36 36 1 6 24.8147 29.1267 15.7284
37 37 1 6 1.32333 7.37537 0.568094
38 38 1 6 19.5037 0.100654 3.27944
39 39 1 6 28.0921 28.3263 1.57528
40 40 1 6 23.1668 13.4814 25.6764
41 41 1 6 23.6945 7.53889 0.462556
42 42 1 6 7.49055 4.97498 14.8795
43 43 1 6 24.2595 13.9835 9.60869
44 44 1 6 26.347 26.672 29.739
45 45 1 6 29.4634 9.38199 18.3121
46 46 1 6 18.762 14.8368 2.08487
47 47 1 6 19.6664 19.2929 10.4455
48 48 1 6 21.7706 12.68 21.3954
49 49 1 6 6.57042 5.22662 10.0593
50 50 1 6 22.8002 22.467 7.71331
51 51 1 6 26.0183 14.2142 22.7231
52 52 1 6 23.5029 3.25486 8.15066
53 53 1 6 16.2043 13.3651 18.8206
54 54 1 6 5.95598 20.0476 7.51173
55 55 1 6 21.1468 2.14795 17.1889
56 56 1 6 18.1569 21.8649 30.7614
57 57 1 6 23.641 0.772737 9.24312
58 58 1 6 21.2906 12.7509 31.3893
59 59 1 6 28.1425 5.83031 6.63835
60 60 1 6 15.2164 31.3312 30.838
61 61 1 6 31.6121 7.68053 7.93318
62 62 1 6 7.74502 15.3574 30.5001
63 63 1 6 0.810814 11.2688 6.70166
64 64 1 6 25.3062 0.395818 15.0084
65 65 1 6 3.12896 12.2277 3.19205
66 66 1 6 10.1898 18.8854 29.0455
67 67 1 6 17.4804 20.9058 11.2736
68 68 1 6 4.8792 25.7438 4.31116
69 69 1 6 15.2651 24.3933 15.708
70 70 1 6 31.5225 16.6139 18.9461
71 71 1 6 10.0545 29.2727 9.97493
72 72 1 6 16.4195 25.4603 21.7772
73 73 1 6 30.551 9.45039 16.0241
74 74 1 6 28.8691 27.4894 16.6058
75 75 1 6 30.6744 4.01017 9.44549
76 76 1 6 14.8751 2.02371 18.404
77 77 1 6 16.6453 4.15629 23.9337
78 78 1 6 17.2131 19.5823 18.2963
79 79 1 6 1.24997 20.5168 27.0086
80 80 1 6 2.93264 18.9946 16.1798
81 81 1 6 26.6794 10.6026 4.68249
82 82 1 6 4.04903 9.10609 20.8667
83 83 1 6 1.02116 19.0767 7.86932
84 84 1 6 13.0315 19.5361 3.98006
85 85 1 6 7.60268 29.7059 16.6654
86 86 1 6 20.3623 29.173 11.7312
87 87 1 6 9.74152 4.41241 13.0079
88 88 1 6 17.1329 16.1612 15.2998
89 89 1 6 25.908 25.376 14.2361
90 90 1 6 12.6527 7.08231 3.69131
91 91 1 6 5.13853 14.0263 6.91004
92 92 1 6 17.1803 25.927 2.82229
93 93 1 6 25.498 18.0791 21.3912
94 94 1 6 13.3045 22.0369 4.15073
95 95 1 6 6.72589 20.7252 24.5978
96 96 1 6 16.1116 15.401 9.92402
97 97 1 6 18.8101 27.9366 2.73248
98 98 1 6 26.6046 8.76036 29.5372
99 99 1 6 4.94811 15.1281 21.4819
100 100 1 6 31.6667 24.9122 13.1467
101 101 1 6 7.81059 24.6314 12.2144
102 102 1 6 9.65159 24.8558 30.9765
103 103 1 6 30.5634 29.6002 9.31387
104 104 1 6 16.7224 12.6042 8.67752
105 105 1 6 25.3271 14.4747 13.5305
106 106 1 6 15.4462 27.27 28.9703
107 107 1 6 29.7507 19.0063 4.76218
108 108 1 6 26.5219 31.2402 17.123
109 109 1 6 20.9313 10.2304 3.93846
110 110 1 6 7.12215 16.4492 17.3487
111 111 1 6 26.2277 26.2233 4.47261
112 112 1 6 25.0888 22.0276 3.23711
113 113 1 6 15.1171 31.0693 18.4788
114 114 1 6 31.7992 8.1969 23.9126
115 115 1 6 30.3665 0.839043 21.3923
116 116 1 6 10.8273 29.5487 24.3944
117 117 1 6 27.9831 21.9541 2.84695
118 118 1 6 27.3267 6.10143 15.3403
119 119 1 6 31.1595 18.7943 27.4911
120 120 1 6 4.36751 12.2504 9.37963
121 121 1 6 27.061 26.8717 27.2242
122 122 1 6 21.373 15.1683 1.05663
123 123 1 6 2.72085 5.82681 10.999
124 124 1 6 14.477 11.0084 22.6239
125 125 1 6 2.11038 30.6566 2.59897
126 126 1 6 24.5274 4.35571 26.9055
127 127 1 6 11.1227 21.2053 5.30713
128 128 1 6 23.2169 14.1792 23.0461
129 129 1 6 20.5614 20.0058 25.4671
130 130 1 6 13.6947 23.6517 6.02833
131 131 1 6 20.2964 30.0514 18.9462
132 132 1 6 14.3709 17.8219 23.3245
133 133 1 6 5.05652 11.2968 15.7851
134 134 1 6 2.25501 22.3346 19.6652
135 135 1 6 11.6153 30.4239 15.4847
136 136 1 6 28.0956 2.15829 21.1157
137 137 1 6 10.4615 1.6726 4.55131
138 138 1 6 9.47297 20.9214 23.0057
139 139 1 6 24.23 30.1827 12.4691
140 140 1 6 23.3879 12.4536 29.4714
141 141 1 6 17.0442 21.843 19.7793
142 142 1 6 11.8235 25.7895 25.4242
143 143 1 6 23.2504 1.23368 31.7479
144 144 1 6 0.937143 15.9659 3.71599
145 145 1 6 2.41308 6.99199 24.8044
146 146 1 6 3.71411 14.9284 17.4942
147 147 1 6 8.33468 26.089 1.41558
148 148 1 6 6.21665 19.9157 4.73464
149 149 1 6 15.303 1.4591 13.955
150 150 1 6 8.06963 26.6437 20.6104
151 151 1 6 7.49437 4.44507 25.1517
152 152 1 6 29.0039 12.8053 16.2995
153 153 1 6 14.4068 7.79606 1.69713
154 154 1 6 15.3076 3.03375 29.2985
155 155 1 6 6.03415 15.9096 24.5271
156 156 1 6 12.2137 21.903 24.5509
157 157 1 6 14.4399 13.0753 17.1578
158 158 1 6 28.4736 23.4706 9.04201
159 159 1 6 7.31979 21.3925 31.1903
160 160 1 6 6.02979 25.6014 18.5571
161 161 1 6 20.835 8.43247 21.4486
162 162 1 6 14.5213 31.3065 10.8006
163 163 1 6 7.06927 3.66861 1.38529
164 164 1 6 6.68089 30.4452 19.0762
165 165 1 6 4.95539 9.36834 5.15688
166 166 1 6 11.9052 25.7175 5.80022
167 167 1 6 1.01766 11.4333 19.1066
168 168 1 6 23.9884 0.621289 23.4694
169 169 1 6 13.7858 29.5177 29.3349
170 170 1 6 22.4295 24.6596 9.14056
171 171 1 6 25.0241 16.6573 29.9142
172 172 1 6 24.6203 12.9994 3.86297
173 173 1 6 23.916 18.9492 18.5508
174 174 1 6 5.90586 11.087 3.41179
175 175 1 6 24.6549 28.966 25.9823
176 176 1 6 1.54638 26.1879 2.08091
177 177 1 6 8.44106 15.8141 21.868
178 178 1 6 18.7069 10.5637 9.19586
179 179 1 6 2.32965 29.8129 8.82491
180 180 1 6 4.6491 8.66308 25.7403
181 181 1 6 27.7445 15.1755 15.3459
182 182 1 6 12.6408 24.0265 14.255
183 183 1 6 14.1154 13.1163 27.0466
184 184 1 6 22.7023 31.0522 14.6687
185 185 1 6 14.7459 5.31709 22.6549
186 186 1 6 25.2635 5.76893 13.2861
187 187 1 6 10.8227 4.55115 20.8105
188 188 1 6 1.31074 4.57484 25.9265
189 189 1 6 17.6487 22.4995 26.3681
190 190 1 6 29.683 27.3327 19.2366
191 191 1 6 21.8841 14.0841 7.11283
192 192 1 6 25.3833 5.4821 1.03633
193 193 1 6 10.1127 29.9869 0.707137
194 194 1 6 3.71758 20.8291 2.16104
195 195 1 6 21.0658 17.1628 23.4026
196 196 1 6 28.6581 16.5611 19.2772
197 197 1 6 7.26487 22.5033 7.92612
198 198 1 6 25.7465 18.7231 16.0414
199 199 1 6 5.0195 29.3559 12.1077
200 200 1 6 15.0229 12.2694 12.402
201 201 1 6 1.03122 1.41589 20.2058
202 202 1 6 3.99252 8.19276 28.6317
203 203 1 6 21.8622 28.5903 16.8964
204 204 1 6 25.3474 30.7806 2.45841
205 205 1 6 15.5889 15.8438 19.4712
206 206 1 6 30.1889 11.7044 14.1225
207 207 1 6 24.7153 24.3976 7.19138
208 208 1 6 3.91057 18.9302 23.0786
209 209 1 6 22.4949 26.1333 1.85796
210 210 1 6 27.309 4.66713 21.0915
211 211 1 6 5.80837 13.4525 27.5985
212 212 1 6 23.8205 2.16837 4.71362
213 213 1 6 22.8486 1.2793 19.0518
214 214 1 6 7.26633 5.73252 30.0565
215 215 1 6 21.1646 4.15155 1.3982
216 216 1 6 16.0317 13.2965 6.22132
217 217 1 6 9.08558 19.2877 4.63463
218 218 1 6 27.6337 5.5091 3.96203
219 219 1 6 13.6556 12.0448 5.80868
220 220 1 6 20.4962 19.2928 12.9961
221 221 1 6 8.5382 12.7532 24.4664
222 222 1 6 16.1185 16.1065 22.1448
223 223 1 6 21.0883 4.20173 20.926
224 224 1 6 8.51289 21.8687 19.2234
225 225 1 6 26.2334 25.8501 18.0701
226 226 1 6 21.2857 6.40035 5.89527
227 227 1 6 22.9294 4.44955 13.4814
228 228 1 6 17.2032 4.19048 14.2215
229 229 1 6 14.8157 5.65553 0.138124
230 230 1 6 21.8012 10.3911 1.2417
231 231 1 6 26.2715 14.149 2.38523
232 232 1 6 25.886 16.6559 23.7729
233 233 1 6 29.7688 29.1765 6.6054
234 234 1 6 11.3608 18.5036 18.7143
235 235 1 6 20.3284 0.913512 15.2283
236 236 1 6 22.1552 24.9646 16.843
237 237 1 6 31.775 21.5292 10.5432
238 238 1 6 10.0911 18.5793 26.1025
239 239 1 6 17.6194 7.82305 22.2638
240 240 1 6 22.2477 1.66296 29.3993
241 241 1 6 27.8799 2.19096 18.0537
242 242 1 6 25.9205 22.8218 15.8517
243 243 1 6 5.0333 22.7464 0.706176
244 244 1 6 0.319523 5.27886 5.0403
245 245 1 6 29.1485 16.0316 13.2223
246 246 1 6 1.14414 2.73496 14.918
247 247 1 6 23.1698 30.4532 0.556351
248 248 1 6 13.4366 11.6078 2.70575
249 249 1 6 23.1732 2.36309 21.4986
250 250 1 6 24.375 26.3748 16.1411
251 251 1 6 12.9356 6.92967 11.4325
252 252 1 6 31.0588 26.715 23.9528
253 253 1 6 25.5927 9.04856 9.82283
254 254 1 6 8.30613 13.6245 13.6374
255 255 1 6 30.1046 4.68121 3.20461
256 256 1 6 28.341 25.7375 25.0682
257 257 1 6 3.61738 28.6167 2.80232
258 258 1 6 26.9969 28.3261 24.4428
259 259 1 6 22.3525 7.42301 9.4723
260 260 1 6 1.23419 3.64902 10.5506
261 261 1 6 29.9567 7.67433 5.90167
262 262 1 6 19.5476 24.4225 9.8477
263 263 1 6 31.5115 30.7146 4.0718
264 264 1 6 7.30138 0.2337 11.7679
265 265 1 6 0.488906 31.1309 18.8338
266 266 1 6 19.7338 2.6262 24.6624
267 267 1 6 11.7584 7.25215 20.1877
268 268 1 6 26.6158 2.91419 4.45645
269 269 1 6 28.5745 16.6717 3.43504
270 270 1 6 11.9067 10.2714 29.8826
271 271 1 6 13.0127 18.0099 7.78807
272 272 1 6 7.8345 9.92122 15.8762
273 273 1 6 27.6825 19.9837 17.5491
274 274 1 6 4.01446 7.54016 1.32425
275 275 1 6 10.9715 15.9312 29.4748
276 276 1 6 26.0763 0.203474 12.1651
277 277 1 6 11.0622 27.7466 14.6582
278 278 1 6 1.85387 1.99321 29.8488
279 279 1 6 19.427 1.21567 28.7121
280 280 1 6 6.76698 11.1669 10.2563
281 281 1 6 11.0776 19.4997 7.40326
282 282 1 6 16.3681 18.5579 3.45529
283 283 1 6 2.19122 20.3314 12.0064
284 284 1 6 19.7587 5.67426 29.504
285 285 1 6 1.51375 31.0745 31.7005
286 286 1 6 0.177933 1.50014 0.14658
287 287 1 6 10.9157 12.5374 21.4874
288 288 1 6 29.1888 14.2036 20.4991
289 289 1 6 15.4505 27.3145 6.8149
290 290 1 6 21.1685 17.728 31.601
291 291 1 6 17.6556 7.70527 27.7149
292 292 1 6 25.2136 10.041 12.3579
293 293 1 6 31.473 22.9212 24.2223
294 294 1 6 10.9265 13.6413 9.31597
295 295 1 6 1.32005 27.185 26.2992
296 296 1 6 10.8573 12.8439 2.29758
297 297 1 6 1.61409 31.4357 6.12328
298 298 1 6 21.501 3.71939 5.53571
299 299 1 6 18.4999 4.83831 16.749
300 300 1 6 3.9777 25.5377 12.6095
301 301 1 6 5.82054 18.1314 28.0898
302 302 1 6 21.4582 19.8858 17.8852
303 303 1 6 22.7071 14.9187 3.33665
304 304 1 6 8.85773 7.72657 0.208441
305 305 1 6 24.2779 21.4284 10.0393
306 306 1 6 13.46 15.5353 30.7895
307 307 1 6 4.64309 13.5115 23.748
308 308 1 6 22.483 13.587 19.0887
309 309 1 6 16.8603 28.187 21.8932
310 310 1 6 15.6569 13.3916 2.73528
311 311 1 6 23.9231 5.49208 29.1561
312 312 1 6 18.7985 6.01217 20.3212
313 313 1 6 0.0902977 19.4848 0.735537
314 314 1 6 7.54538 23.7548 29.6204
315 315 1 6 0.436452 12.7287 4.08779
316 316 1 6 25.1648 11.561 25.8233
317 317 1 6 7.7986 9.02185 23.6293
318 318 1 6 15.4778 7.39414 24.2473
319 319 1 6 3.89124 3.16619 0.782862
320 320 1 6 26.9717 10.7518 16.6341
321 321 1 6 20.2245 31.2825 26.9124
322 322 1 6 7.70571 7.36637 27.7355
323 323 1 6 29.031 21.2287 10.6268
324 324 1 6 1.95984 9.83587 10.5146
325 325 1 6 6.21525 10.3707 19.3671
326 326 1 6 0.975684 24.0509 30.6934
327 327 1 6 8.58059 27.0601 13.5982
328 328 1 6 19.3292 12.074 22.2693
329 329 1 6 14.985 1.01159 1.56996
330 330 1 6 25.2182 4.51169 9.80865
331 331 1 6 25.0679 25.6232 25.3585
332 332 1 6 13.9032 25.0212 20.3842
333 333 1 6 12.6621 14.0685 11.3604
334 334 1 6 17.5771 7.20432 13.8828
335 335 1 6 12.9106 20.5163 17.8579
336 336 1 6 16.8639 27.689 16.4055
337 337 1 6 18.9769 30.48 9.06198
338 338 1 6 4.38608 17.5751 14.0641
339 339 1 6 31.0444 14.4797 2.10127
340 340 1 6 29.704 21.0033 23.3647
341 341 1 6 1.117 7.32424 21.2523
342 342 1 6 6.66321 21.186 21.5282
343 343 1 6 17.794 3.55918 28.8026
344 344 1 6 8.53086 7.2303 3.03242
345 345 1 6 6.58991 15.5003 9.43751
346 346 1 6 29.0227 25.7697 7.54509
347 347 1 6 11.3597 0.952124 12.5054
348 348 1 6 15.3414 26.1853 11.6957
349 349 1 6 2.1341 25.3767 7.92504
350 350 1 6 22.6094 18.5695 29.4553
351 351 1 6 12.3913 20.2022 11.5961
352 352 1 6 0.458588 10.6084 25.0159
353 353 1 6 20.1585 26.3909 15.8462
354 354 1 6 10.8864 20.1544 31.6471
355 355 1 6 5.36107 11.3117 12.9682
356 356 1 6 5.77084 30.9973 3.84844
357 357 1 6 18.3684 12.2759 15.4128
358 358 1 6 14.1565 0.533528 25.5297
359 359 1 6 23.37 12.6829 15.8395
360 360 1 6 0.110366 22.9772 4.65065
361 361 1 6 10.6934 2.41676 14.6026
362 362 1 6 3.06594 16.5615 19.8029
363 363 1 6 9.17875 12.1362 6.35386
364 364 1 6 24.5303 9.53075 1.90694
365 365 1 6 23.1708 2.84651 15.6931
366 366 1 6 29.5419 12.636 25.3072
367 367 1 6 26.4078 6.36525 30.476
368 368 1 6 17.959 23.5657 28.7014
369 369 1 6 28.7202 14.0256 9.14225
370 370 1 6 14.1555 9.85927 7.50776
371 371 1 6 19.0526 5.07509 10.2725
372 372 1 6 27.1337 14.0961 31.6105
373 373 1 6 9.6285 16.0864 12.7946
374 374 1 6 29.1685 11.4051 8.93723
375 375 1 6 3.63239 1.0402 24.708
376 376 1 6 23.5963 21.734 14.7441
377 377 1 6 21.7611 23.6623 14.6344
378 378 1 6 24.3221 21.5178 19.3188
379 379 1 6 18.942 0.0708688 23.9354
380 380 1 6 1.4148 3.64062 1.58231
381 381 1 6 28.0315 4.93043 23.694
382 382 1 6 5.64561 22.6589 26.3233
383 383 1 6 15.9552 5.96005 26.5875
384 384 1 6 21.7397 27.1384 8.38973
385 385 1 6 15.8059 16.1021 4.99489
386 386 1 6 2.47321 21.998 24.4157
387 387 1 6 28.367 10.4654 28.3642
388 388 1 6 0.588189 18.7612 20.3011
389 389 1 6 24.3441 9.60312 6.89364
390 390 1 6 30.5859 30.0459 20.5443
391 391 1 6 6.99791 28.209 8.72077
392 392 1 6 17.0198 14.2305 26.1486
393 393 1 6 19.7765 2.99049 3.57273
394 394 1 6 21.8655 6.86441 24.7905
395 395 1 6 7.03604 2.42377 21.0913
396 396 1 6 14.2517 19.0603 27.2404
397 397 1 6 10.6624 27.8743 22.4495
398 398 1 6 26.4093 31.1144 29.3905
399 399 1 6 29.7869 6.67495 9.83937
400 400 1 6 16.5849 7.48693 30.3144
401 401 1 6 31.2395 30.2127 24.9773
402 402 1 6 10.7517 5.31057 2.41302
403 403 1 6 10.85 3.1762 30.5772
404 404 1 6 28.4807 2.3325 24.9494
405 405 1 6 29.4559 17.9423 31.3965
406 406 1 6 21.9318 6.59624 19.817
407 407 1 6 26.4974 22.6015 18.3347
408 408 1 6 28.739 29.8148 26.346
409 409 1 6 22.2945 17.1039 16.2957
410 410 1 6 5.69331 24.4278 14.632
411 411 1 6 11.52 3.187 18.5032
412 412 1 6 8.71826 29.8781 21.3806
413 413 1 6 23.9141 16.1361 18.5071
414 414 1 6 3.13074 24.8536 0.243597
415 415 1 6 18.1686 6.8895 2.61833
416 416 1 6 6.4152 11.5225 23.271
417 417 1 6 9.99302 10.878 3.94336
418 418 1 6 6.32079 16.9548 6.08515
419 419 1 6 6.39571 13.7655 11.7669
420 420 1 6 11.1936 8.68925 5.08619
421 421 1 6 29.6931 24.1058 11.4521
422 422 1 6 17.6277 18.9802 7.78397
423 423 1 6 20.9676 24.2321 20.5585
424 424 1 6 3.254 28.124 18.2211
425 425 1 6 6.88174 7.10708 25.3799
426 426 1 6 5.5677 30.0692 14.9673
427 427 1 6 13.4295 9.89447 0.400136
428 428 1 6 5.04656 1.13753 22.3942
429 429 1 6 20.0238 6.6462 8.27741
430 430 1 6 19.0884 31.3405 16.9335
431 431 1 6 18.6479 23.2455 12.1099
432 432 1 6 15.5264 5.10177 20.2173
433 433 1 6 17.3746 19.705 29.4263
434 434 1 6 29.4127 6.7796 24.9404
435 435 1 6 21.4272 15.4306 11.8279
436 436 1 6 5.48436 3.75545 16.6944
437 437 1 6 16.9516 12.2233 20.8155
438 438 1 6 26.9087 12.5321 27.9198
439 439 1 6 13.4116 2.39139 21.2083
440 440 1 6 8.63316 20.5698 1.90982
441 441 1 6 25.1357 4.7298 6.6482
442 442 1 6 16.6794 24.5299 13.5958
443 443 1 6 20.6652 9.07957 30.6641
444 444 1 6 2.19909 3.27864 4.24759
445 445 1 6 9.93976 18.9502 21.2317
446 446 1 6 7.81825 8.28867 7.99277
447 447 1 6 8.97813 4.49169 6.06553
448 448 1 6 8.06206 9.726 2.58143
449 449 1 6 0.840305 22.5523 15.6236
450 450 1 6 1.36426 14.5289 20.1375
451 451 1 6 13.0887 11.2438 18.4029
452 452 1 6 28.5496 23.5461 27.8955
453 453 1 6 16.3668 27.8988 24.5071
454 454 1 6 31.1831 23.1864 26.8181
455 455 1 6 13.461 23.5306 29.3218
456 456 1 6 18.7194 8.8508 6.94455
457 457 1 6 6.48421 24.4398 2.53706
458 458 1 6 15.4928 9.9015 30.5223
459 459 1 6 26.9389 16.3037 12.0377
460 460 1 6 11.8834 4.42691 8.94394
461 461 1 6 28.7995 3.65894 15.9753
462 462 1 6 3.27623 5.18817 15.9463
463 463 1 6 1.54957 8.57621 29.8384
464 464 1 6 3.84392 22.3454 28.4211
465 465 1 6 1.93937 10.5807 21.3947
466 466 1 6 15.7165 24.3534 1.10819
467 467 1 6 31.7318 21.2597 18.7698
468 468 1 6 9.0913 4.09177 28.9448
469 469 1 6 15.3143 16.1796 1.98588
470 470 1 6 15.0824 18.8917 16.8267
471 471 1 6 9.33832 22.5622 11.4608
472 472 1 6 2.742 27.6662 30.4837
473 473 1 6 16.1129 9.65467 21.2328
474 474 1 6 14.9699 29.0913 4.7541
475 475 1 6 31.291 24.727 22.1892
476 476 1 6 25.0078 12.5 17.7853
477 477 1 6 18.0146 12.0482 12.7239
478 478 1 6 3.24373 19.3863 25.5462
479 479 1 6 29.8465 29.6538 28.87
480 480 1 6 19.7222 7.45898 12.1427
481 481 1 6 30.0973 18.3288 14.1911
482 482 1 6 16.051 20.8983 13.9135
483 483 1 6 26.7912 12.8112 20.3696
484 484 1 6 13.4436 3.36031 3.97932
485 485 1 6 0.0962821 17.6082 24.6421
486 486 1 6 1.19522 0.114765 14.2936
487 487 1 6 10.4211 6.24444 16.1266
488 488 1 6 5.92545 31.2218 24.2976
489 489 1 6 20.6994 21.4015 2.52983
490 490 1 6 18.2529 26.7345 14.0521
491 491 1 6 18.7397 7.66695 0.158894
492 492 1 6 4.93002 24.1435 30.1436
493 493 1 6 22.3413 24.0333 5.60825
494 494 1 6 9.3761 23.5 22.125
495 495 1 6 30.8437 6.89736 12.4035
496 496 1 6 13.2325 21.6872 27.287
497 497 1 6 26.5422 16.4137 17.4543
498 498 1 6 4.95511 25.2698 9.92637
499 499 1 6 1.09575 1.76531 25.2863
500 500 1 6 22.8118 14.6353 28.0869
501 501 1 6 13.4243 5.88675 6.37297
502 502 1 6 27.0228 8.28498 25.6422
503 503 1 6 30.3326 15.243 7.22636
504 504 1 6 25.2164 31.4856 27.0461
505 505 1 6 20.6702 7.44622 3.53861
506 506 1 6 13.2283 6.54558 15.7412
507 507 1 6 21.6918 0.848971 25.0427
508 508 1 6 21.4473 27.01 19.1518
509 509 1 6 18.7894 2.37808 10.4671
510 510 1 6 3.94317 22.4345 17.528
511 511 1 6 15.5901 3.10405 5.78334
512 512 1 6 4.59612 14.8985 13.6798
513 513 1 6 1.56082 26.9679 14.0543
514 514 1 6 16.1214 8.51362 3.70139
515 515 1 6 17.8858 12.9469 4.27958
516 516 1 6 12.9334 28.2361 20.5651
517 517 1 6 5.51062 28.0465 19.7396
518 518 1 6 4.59465 31.1924 7.68533
519 519 1 6 1.97748 12.3615 23.7651
520 520 1 6 7.77831 29.2883 12.2517
521 521 1 6 24.541 27.1264 0.296248
522 522 1 6 2.44365 9.61832 3.67134
523 523 1 6 20.3215 4.52186 14.319
524 524 1 6 2.91487 17.5344 7.02631
525 525 1 6 7.37464 7.90211 19.231
526 526 1 6 18.3775 14.5042 16.9859
527 527 1 6 26.7782 27.6025 11.518
528 528 1 6 29.3199 7.81708 14.377
529 529 1 6 23.6807 30.1225 22.1415
530 530 1 6 6.71832 31.0204 9.48177
531 531 1 6 27.3618 11.1678 24.4499
532 532 1 6 5.74286 21.1049 18.9441
533 533 1 6 6.27516 27.0452 14.6293
534 534 1 6 29.7881 12.3782 11.5853
535 535 1 6 2.48847 14.0338 1.45048
536 536 1 6 23.2663 27.5137 28.5861
537 537 1 6 27.2276 25.05 22.5446
538 538 1 6 12.7205 29.1339 10.243
539 539 1 6 2.82467 19.6719 31.6863
540 540 1 6 12.1555 11.3047 15.1976
541 541 1 6 3.48096 21.24 6.53121
542 542 1 6 31.2622 22.0516 31.5938
543 543 1 6 24.2558 6.71565 10.8386
544 544 1 6 31.4725 28.9115 31.4181
545 545 1 6 16.2793 0.518944 3.96905
546 546 1 6 3.397 19.8477 28.9847
547 547 1 6 27.7242 29.674 15.3979
548 548 1 6 10.3858 17.9291 14.6822
549 549 1 6 27.898 15.1567 26.8835
550 550 1 6 30.1971 0.906583 12.3201
551 551 1 6 28.5536 14.5682 5.23632
552 552 1 6 21.9359 11.3587 13.2926
553 553 1 6 4.33784 4.7859 12.6223
554 554 1 6 18.8803 26.3953 26.9874
555 555 1 6 6.1907 15.031 3.84494
556 556 1 6 16.6123 30.6904 16.1014
557 557 1 6 5.05445 2.2482 3.18719
558 558 1 6 15.0603 27.6424 2.44656
559 559 1 6 20.2669 21.4918 27.7233
560 560 1 6 22.6072 16.8029 9.87648
561 561 1 6 15.7828 20.667 8.79505
562 562 1 6 25.0568 14.3923 6.00352
563 563 1 6 4.3545 6.49124 22.6484
564 564 1 6 17.7221 30.9553 29.8029
565 565 1 6 5.23565 7.13977 3.75294
566 566 1 6 18.3524 10.2254 4.68707
567 567 1 6 31.5741 23.8598 7.17128
568 568 1 6 14.5912 7.77504 13.799
569 569 1 6 29.1607 6.24364 19.4946
570 570 1 6 7.84366 18.543 29.9934
571 571 1 6 4.17257 16.7854 26.5971
572 572 1 6 6.13129 17.5799 22.3374
573 573 1 6 30.804 5.47567 26.7475
574 574 1 6 6.25458 8.59204 10.1431
575 575 1 6 26.2428 29.7997 21.2246
576 576 1 6 24.1173 24.5929 3.53161
577 577 1 6 9.6016 0.921335 10.5116
578 578 1 6 9.72972 24.2806 24.9665
579 579 1 6 28.7504 19.8543 8.38986
580 580 1 6 29.1662 24.9571 20.7282
581 581 1 6 20.9432 10.0311 15.3911
582 582 1 6 9.48177 11.0102 26.3389
583 583 1 6 21.184 6.63269 1.04362
584 584 1 6 13.3402 27.0409 8.71565
585 585 1 6 24.2365 10.1131 28.2993
586 586 1 6 26.6502 8.13695 3.37347
587 587 1 6 16.3214 12.2838 31.7422
588 588 1 6 31.1416 3.16307 16.8332
589 589 1 6 10.0328 11.7633 30.7513
590 590 1 6 25.039 18.1475 26.0826
591 591 1 6 13.5763 12.6799 20.7201
592 592 1 6 8.63014 26.3384 9.92011
593 593 1 6 12.7511 29.8639 27.0563
594 594 1 6 4.51611 25.0107 21.8972
595 595 1 6 21.08 30.4116 4.66703
596 596 1 6 11.7593 3.471 6.23658
597 597 1 6 6.83951 27.8451 30.1807
598 598 1 6 16.0195 8.50869 6.53023
599 599 1 6 19.1086 9.68196 23.7021
600 600 1 6 6.10605 31.7374 31.4285
601 601 1 6 25.3711 24.0547 9.98746
602 602 1 6 3.01926 13.2516 15.3065
603 603 1 6 2.83899 12.2345 11.8905
604 604 1 6 25.5924 23.1128 26.8995
605 605 1 6 1.59258 17.4469 22.5533
606 606 1 6 7.7329 15.7522 1.64559
607 607 1 6 25.8112 5.88504 25.0471
608 608 1 6 22.5257 21.0499 30.4668
609 609 1 6 8.30327 19.3099 13.2316
610 610 1 6 22.97 17.3291 4.14726
611 611 1 6 13.6975 22.3989 8.46805
612 612 1 6 30.2168 31.0963 14.4757
613 613 1 6 23.5351 6.97123 7.2532
614 614 1 6 18.3183 16.5671 4.22791
615 615 1 6 30.6245 12.6538 18.6571
616 616 1 6 30.1357 18.8293 21.3889
617 617 1 6 23.3627 16.5311 21.6083
618 618 1 6 8.51108 18.5186 8.1858
619 619 1 6 0.507732 7.8567 4.48793
620 620 1 6 20.2009 17.9032 5.53555
621 621 1 6 10.8852 26.9672 29.2633
622 622 1 6 18.255 4.91625 6.25236
623 623 1 6 11.6717 5.62717 31.3947
624 624 1 6 10.8397 13.313 25.8415
625 625 1 6 12.7365 26.6074 1.67404
626 626 1 6 14.9923 23.2526 25.6139
627 627 1 6 25.8305 17.8766 1.0025
628 628 1 6 5.60535 2.86258 26.215
629 629 1 6 30.2223 20.3768 16.1642
630 630 1 6 17.87 31.3945 13.5649
631 631 1 6 12.4522 20.1815 21.9212
632 632 1 6 20.9296 28.9208 0.754112
633 633 1 6 28.524 20.4615 13.1198
634 634 1 6 4.20628 3.98355 9.09181
635 635 1 6 26.4141 14.9419 8.44563
636 636 1 6 27.8441 7.83635 8.33198
637 637 1 6 26.3928 0.430811 24.6658
638 638 1 6 29.1585 3.35557 27.4344
639 639 1 6 8.36229 27.2457 17.7446
640 640 1 6 7.40727 22.149 3.91503
641 641 1 6 24.5021 25.356 22.926
642 642 1 6 4.98799 5.53746 31.482
643 643 1 6 10.7229 21.1701 13.4162
644 644 1 6 19.0344 30.8229 0.287057
645 645 1 6 12.2954 5.0722 23.4488
646 646 1 6 21.8478 27.3068 25.7406
647 647 1 6 2.01695 21.1296 4.15747
648 648 1 6 23.4472 9.81653 16.3862
649 649 1 6 18.5546 8.87611 16.0195
650 650 1 6 17.567 30.8825 26.2921
651 651 1 6 12.4589 16.4058 1.48698
652 652 1 6 11.7348 24.7225 22.5752
653 653 1 6 2.87956 30.6555 17.9684
654 654 1 6 1.649 4.18237 19.9276
655 655 1 6 13.8369 4.81964 27.9283
656 656 1 6 10.703 14.5541 23.334
657 657 1 6 0.445966 29.6842 27.3869
658 658 1 6 15.1176 10.909 10.0881
659 659 1 6 24.3001 5.30564 18.2607
660 660 1 6 19.3816 3.43526 18.7563
661 661 1 6 24.2667 12.4821 12.1145
662 662 1 6 16.7835 23.646 17.8755
663 663 1 6 28.8257 19.3405 25.4271
664 664 1 6 5.19618 15.9015 29.9373
665 665 1 6 7.14416 22.0627 13.736
666 666 1 6 1.92897 24.8864 20.7607
667 667 1 6 14.8825 30.2154 21.3407
668 668 1 6 20.8337 3.12824 7.99032
669 669 1 6 11.529 13.543 6.56247
670 670 1 6 8.39282 0.474278 25.2392
671 671 1 6 2.571 6.41037 7.8975
672 672 1 6 7.09751 18.1167 19.6779
673 673 1 6 27.8094 21.7691 6.92464
674 674 1 6 7.40104 18.3055 26.0836
675 675 1 6 3.67265 21.5313 21.9306
676 676 1 6 21.1848 14.7816 17.2095
677 677 1 6 17.2631 9.75665 26.2274
678 678 1 6 7.90017 14.5247 26.3073
679 679 1 6 1.59033 7.79482 12.5581
680 680 1 6 29.5976 21.6614 4.96125
681 681 1 6 7.42727 0.744597 7.44333
682 682 1 6 14.2562 27.0709 16.0389
683 683 1 6 14.3315 6.64798 18.5446
684 684 1 6 0.787959 13.1577 13.7812
685 685 1 6 14.4809 24.5947 23.5894
686 686 1 6 23.4045 22.6839 28.4831
687 687 1 6 24.8348 28.9953 30.1385
688 688 1 6 0.398963 14.8354 22.6522
689 689 1 6 15.6441 24.6322 30.253
690 690 1 6 22.1945 19.4129 1.91482
691 691 1 6 15.6718 20.2209 24.8446
692 692 1 6 20.1178 25.5099 24.7124
693 693 1 6 22.37 18.4579 26.7348
694 694 1 6 13.19 23.9465 1.90594
695 695 1 6 23.8585 31.2521 4.65444
696 696 1 6 0.858069 17.1441 13.7953
697 697 1 6 10.3706 26.2387 16.8411
698 698 1 6 9.74346 30.2556 26.7858
699 699 1 6 3.14091 0.532733 4.35485
700 700 1 6 2.37609 14.4914 27.0871
701 701 1 6 0.0683115 6.4533 29.0457
702 702 1 6 27.5559 10.2545 21.1083
703 703 1 6 28.4339 2.85093 2.24978
704 704 1 6 21.2506 7.6915 14.2632
705 705 1 6 2.04954 23.395 12.7702
706 706 1 6 20.7169 16.2431 26.6761
707 707 1 6 9.12844 10.8715 8.68029
708 708 1 6 6.09498 25.0201 7.56576
709 709 1 6 24.7415 23.4681 31.7344
710 710 1 6 21.1043 17.7097 20.307
711 711 1 6 29.1589 19.0833 29.177
712 712 1 6 5.88472 12.6311 20.6837
713 713 1 6 11.8551 16.6173 21.7308
714 714 1 6 6.25662 14.1929 15.636
715 715 1 6 27.6159 18.8764 19.9625
716 716 1 6 9.14043 27.2312 25.4118
717 717 1 6 9.85864 3.59251 10.3562
718 718 1 6 0.203574 16.2336 26.965
719 719 1 6 5.29842 27.8436 22.3411
720 720 1 6 20.8524 16.8753 8.00206
721 721 1 6 5.57352 1.80059 18.8243
722 722 1 6 13.7965 8.88339 25.7325
723 723 1 6 0.946638 13.6599 7.68361
724 724 1 6 27.7696 10.068 13.9934
725 725 1 6 13.5093 31.111 13.8369
726 726 1 6 5.00443 10.7268 29.0712
727 727 1 6 2.15767 1.32448 9.93785
728 728 1 6 28.6094 26.3726 31.1949
729 729 1 6 8.38976 23.0979 27.1495
730 730 1 6 19.8803 29.36 14.783
731 731 1 6 22.2496 5.82242 16.6018
732 732 1 6 22.4384 23.5237 22.5189
733 733 1 6 16.8197 1.81098 22.7305
734 734 1 6 10.8561 7.84357 30.2954
735 735 1 6 6.81143 12.9094 5.30876
736 736 1 6 15.567 8.29687 11.2486
737 737 1 6 24.5257 18.8683 9.23256
738 738 1 6 20.1203 21.2393 7.33613
739 739 1 6 9.66695 25.0277 7.83895
740 740 1 6 1.14087 5.16845 17.6081
741 741 1 6 8.91853 3.71729 3.48557
742 742 1 6 4.74586 10.2274 0.991629
743 743 1 6 18.4987 17.5945 22.7349
744 744 1 6 3.4184 23.157 10.6205
745 745 1 6 11.6724 16.2053 5.86573
746 746 1 6 12.5764 26.466 18.3289
747 747 1 6 9.39541 19.4434 10.7021
748 748 1 6 4.50177 4.41368 20.6247
749 749 1 6 18.52 12.2157 27.1885
750 750 1 6 29.7104 22.6409 14.7762
751 751 1 6 15.6335 14.0664 29.5284
752 752 1 6 30.3516 26.6406 9.9063
753 753 1 6 27.9668 19.9214 0.659764
754 754 1 6 21.3302 27.5142 3.60523
755 755 1 6 30.4698 4.37263 6.85233
756 756 1 6 28.5186 16.7651 24.7001
757 757 1 6 24.9325 2.56807 17.7321
758 758 1 6 18.3215 25.8692 17.8469
759 759 1 6 3.88138 18.3287 4.30461
760 760 1 6 16.2605 29.8488 12.3627
761 761 1 6 29.9306 12.2151 29.6095
762 762 1 6 3.60726 31.5692 15.5965
763 763 1 6 3.70022 25.9222 26.2538
764 764 1 6 30.5036 18.2936 7.09452
765 765 1 6 3.79358 10.1723 7.53202
766 766 1 6 6.72605 7.42578 16.4031
767 767 1 6 16.9851 29.7414 1.90681
768 768 1 6 19.5392 16.857 13.4359
769 769 1 6 9.34166 18.1684 17.0887
770 770 1 6 26.0333 25.2447 1.34891
771 771 1 6 12.9086 18.9745 1.35527
772 772 1 6 8.24924 4.59151 22.1204
773 773 1 6 7.81291 0.540056 1.99274
774 774 1 6 1.38586 15.2219 9.94605
775 775 1 6 0.465364 24.7801 9.98212
776 776 1 6 26.6109 26.8974 7.13153
777 777 1 6 24.4375 4.7825 20.9482
778 778 1 6 0.699002 0.605186 27.6557
779 779 1 6 30.2133 14.7709 28.5375
780 780 1 6 3.19746 21.5031 15.1864
781 781 1 6 11.8251 21.9442 15.9073
782 782 1 6 4.03866 19.1059 18.8022
783 783 1 6 6.78116 17.9307 15.2171
784 784 1 6 19.0808 25.7319 21.9434
785 785 1 6 14.1966 28.5383 13.7594
786 786 1 6 4.78622 17.5415 0.215831
787 787 1 6 10.2358 15.4889 2.49537
788 788 1 6 18.6264 16.9375 9.63775
789 789 1 6 17.3328 28.4818 27.721
790 790 1 6 19.7679 27.2238 29.9419
791 791 1 6 25.4298 2.02622 30.2226
792 792 1 6 16.2783 10.4665 16.5968
793 793 1 6 28.9494 25.6841 4.66919
794 794 1 6 24.3241 21.0219 5.66603
795 795 1 6 11.2807 28.1192 7.1032
796 796 1 6 1.02857 9.52063 17.3659
797 797 1 6 28.2781 12.5884 3.33178
798 798 1 6 4.34525 11.1304 26.4808
799 799 1 6 20.9669 12.3882 9.18696
800 800 1 6 8.86937 28.4425 5.47087
801 801 1 6 13.0643 26.311 28.0071
802 802 1 6 19.7926 22.9128 5.06727
803 803 1 6 19.3132 27.1028 9.42635
804 804 1 6 25.3717 28.1094 2.42774
805 805 1 6 2.88973 28.336 23.8624
806 806 1 6 13.9336 22.1871 12.637
807 807 1 6 3.98489 16.2145 2.45386
808 808 1 6 28.346 4.83163 29.4715
809 809 1 6 7.13299 9.48072 31.3535
810 810 1 6 9.42638 22.9741 16.9008
811 811 1 6 18.119 9.22435 11.6073
812 812 1 6 31.1005 8.85134 1.94738
813 813 1 6 11.0798 6.50774 13.5653
814 814 1 6 3.75412 7.96609 9.70937
815 815 1 6 1.17687 25.0967 16.3682
816 816 1 6 23.9984 6.85598 22.8993
817 817 1 6 28.845 25.251 14.5675
818 818 1 6 15.992 6.02292 7.15487
819 819 1 6 0.484295 17.9271 16.4803
820 820 1 6 18.3082 4.26572 26.3564
821 821 1 6 0.777294 26.5026 18.682
822 822 1 6 17.4554 21.5851 16.1152
823 823 1 6 14.718 17.9393 29.6813
824 824 1 6 4.17308 24.0922 24.382
825 825 1 6 9.95947 6.86266 8.68557
826 826 1 6 1.67774 22.0476 8.50399
827 827 1 6 18.4171 17.9203 31.081
828 828 1 6 12.0885 10.1886 21.4346
829 829 1 6 23.6833 10.6235 4.23496
830 830 1 6 7.12673 24.3333 21.0793
831 831 1 6 31.4562 25.4583 3.70877
832 832 1 6 26.0796 20.4077 23.0927
833 833 1 6 19.7975 21.6906 14.2698
834 834 1 6 18.3559 20.1555 2.40389
835 835 1 6 23.677 20.2516 21.9051
836 836 1 6 16.5222 21.3788 0.893803
837 837 1 6 11.9637 28.2141 31.2334
838 838 1 6 26.1901 0.773373 20.2478
839 839 1 6 26.0799 18.7598 12.9651
840 840 1 6 11.745 23.0384 31.4333