DPLR conf script

1024 atoms
3 atom types
256 bonds
1 bond types

0.0 19.73 xlo xhi
0.0 19.73 ylo yhi
0.0 19.73 zlo zhi

Masses

1 15.999
2 2.014 
3 15.999

Atoms

1 1 1 6 7.5557 2.73681 14.0946
2 2 1 6 -0.0593415 12.7883 2.76715
3 3 1 6 6.76348 5.97397 10.3675
4 4 1 6 1.89396 4.0059 1.24618
5 5 1 6 19.3768 13.8725 10.1885
6 6 1 6 0.365035 9.73214 13.4506
7 7 1 6 18.8032 9.34764 19.505
8 8 1 6 15.8325 10.2618 12.8806
9 9 1 6 3.29118 14.3029 5.27843
10 10 1 6 2.86152 10.2114 1.31804
11 11 1 6 6.61273 4.29921 2.30464
12 12 1 6 12.9764 12.4554 11.7763
13 13 1 6 10.2055 12.5118 7.3063
14 14 1 6 17.5053 19.4278 2.23032
15 15 1 6 4.53023 4.34997 10.6323
16 16 1 6 18.2597 15.1252 16.8155
17 17 1 6 16.4633 2.23752 9.59829
18 18 1 6 7.05421 13.5092 14.8369
19 19 1 6 5.27821 16.3353 11.9242
20 20 1 6 2.20224 5.86784 11.3266
21 21 1 6 1.51044 16.6635 12.9076
22 22 1 6 1.51063 1.78787 5.4721
23 23 1 6 19.404 4.65938 15.9333
24 24 1 6 10.697 0.199496 4.77947
25 25 1 6 11.1196 15.2483 17.9443
26 26 1 6 18.9185 1.90067 14.9846
27 27 1 6 6.95796 6.21785 16.3269
28 28 1 6 4.65652 17.1854 0.974573
29 29 1 6 12.6522 5.88406 1.53788
30 30 1 6 19.5109 7.81572 11.6527
31 31 1 6 1.51015 11.4703 10.7187
32 32 1 6 16.9787 18.9444 13.5588
33 33 1 6 12.7091 4.21737 15.2281
34 34 1 6 6.65075 12.0657 2.91939
35 35 1 6 5.09273 15.3644 14.6472
36 36 1 6 10.4062 8.95182 12.9535
37 37 1 6 14.9633 9.96136 0.647878
38 38 1 6 7.71398 14.5119 18.0076
39 39 1 6 12.6092 13.3953 9.04747
40 40 1 6 2.98775 14.8626 11.9404
41 41 1 6 9.35618 19.544 11.0652
42 42 1 6 8.83713 17.0344 13.6675
43 43 1 6 13.822 11.4783 2.46954
44 44 1 6 5.53136 7.76186 4.36862
45 45 1 6 4.55027 5.89951 14.7984
46 46 1 6 19.3879 18.044 1.10374
47 47 1 6 16.9071 3.19985 18.2225
48 48 1 6 2.44169 4.19399 4.46985
49 49 1 6 11.2257 4.25474 5.8153
50 50 1 6 2.11062 3.07265 18.3866
51 51 1 6 6.02215 0.438525 16.0724
52 52 1 6 19.5915 19.168 4.7003
53 53 1 6 7.95147 3.88373 7.35132
54 54 1 6 15.3691 4.14366 1.00227
55 55 1 6 3.84538 14.2013 9.61826
56 56 1 6 3.48738 11.9162 13.0128
57 57 1 6 1.1795 7.99422 5.44739
58 58 1 6 17.9438 15.812 1.00117
59 59 1 6 19.394 12.4455 13.1191
60 60 1 6 9.75412 4.30349 13.593
61 61 1 6 13.2203 4.34216 19.1089
62 62 1 6 0.713601 9.13213 9.4642
63 63 1 6 6.18561 17.8159 14.1324
64 64 1 6 6.59854 8.85757 12.4621
65 65 1 6 8.03299 12.9103 12.0622
66 66 1 6 12.9973 8.4241 10.262
67 67 1 6 6.20929 3.09696 19.6354
68 68 1 6 14.3675 17.897 18.1483
69 69 1 6 0.481899 19.2365 9.69396
70 70 1 6 9.44645 11.6107 17.3822
71 71 1 6 15.1011 13.591 3.68485
72 72 1 6 15.902 12.9615 16.8413
73 73 1 6 7.85414 2.45392 3.74296
74 74 1 6 16.3027 6.79436 9.02792
75 75 1 6 10.9537 8.93609 15.8807
76 76 1 6 8.34824 1.82034 1.08364
77 77 1 6 17.5167 4.7131 10.1669
78 78 1 6 5.21695 0.831146 8.26403
79 79 1 6 16.3887 16.9377 11.9371
80 80 1 6 12.6878 17.9652 14.8053
81 81 1 6 13.6781 2.04436 14.0896
82 82 1 6 8.62351 13.8756 3.29465
83 83 1 6 11.4024 8.37896 1.53359
84 84 1 6 9.46227 2.08931 6.05153
85 85 1 6 15.2496 14.3568 12.4134
86 86 1 6 9.36226 10.1509 8.04982
87 87 1 6 0.620576 11.7299 0.507237
88 88 1 6 2.70045 7.53138 8.08788
89 89 1 6 3.79532 10.0287 16.3062
90 90 1 6 7.93093 9.04204 5.75954
91 91 1 6 11.6444 1.87772 2.4174
92 92 1 6 9.27322 4.87033 18.3379
93 93 1 6 16.996 8.22589 14.0576
94 94 1 6 9.95112 12.3303 0.275654
95 95 1 6 2.64998 5.48297 16.7213
96 96 1 6 7.34108 5.82388 13.2179
97 97 1 6 11.9522 9.41849 7.96766
98 98 1 6 17.3825 8.697 2.02963
99 99 1 6 9.6177 7.19518 9.74715
100 100 1 6 0.954672 13.9167 15.4396
101 101 1 6 7.20976 18.765 7.32445
102 102 1 6 16.3318 0.23206 17.1582
103 103 1 6 16.5705 9.57637 4.47155
104 104 1 6 11.5819 6.4831 11.9171
105 105 1 6 13.291 15.1477 1.84327
106 106 1 6 19.0506 2.89672 12.5072
107 107 1 6 14.5961 5.1575 7.98734
108 108 1 6 16.8013 12.0243 5.2685
109 109 1 6 18.3909 15.1571 3.61201
110 110 1 6 1.88286 11.877 4.7545
111 111 1 6 5.47322 16.9064 5.95195
112 112 1 6 9.2703 17.0186 7.29669
113 113 1 6 10.7405 19.2045 13.295
114 114 1 6 4.81021 18.682 18.2121
115 115 1 6 13.9393 9.89647 4.61814
116 116 1 6 16.6199 14.1374 6.99198
117 117 1 6 1.91626 2.70617 11.334
118 118 1 6 13.287 6.96881 4.23731
119 119 1 6 3.14828 0.439869 9.95957
120 120 1 6 13.2696 12.1321 16.7187
121 121 1 6 12.4037 6.80454 6.86973
122 122 1 6 10.1778 6.23934 15.9376
123 123 1 6 14.5638 19.6192 14.7896
124 124 1 6 13.6965 9.53241 16.5964
125 125 1 6 14.5334 17.7397 9.92159
126 126 1 6 1.16047 11.5171 16.9336
127 127 1 6 8.39444 6.77818 7.08141
128 128 1 6 1.62626 4.9733 7.32983
129 129 1 6 17.2684 4.74842 5.98778
130 130 1 6 10.9079 4.33125 2.8282
131 131 1 6 8.66796 7.83028 1.12774
132 132 1 6 16.0191 3.89849 15.7888
133 133 1 6 4.92928 5.06761 5.6636
134 134 1 6 0.28473 5.54415 5.10717
135 135 1 6 12.5022 1.03202 12.0916
136 136 1 6 16.196 17.2659 7.78246
137 137 1 6 14.4528 2.15963 2.80892
138 138 1 6 14.0804 3.37797 5.57593
139 139 1 6 10.9181 2.95899 17.118
140 140 1 6 6.20165 2.27588 10.3025
141 141 1 6 0.117075 3.61759 9.20598
142 142 1 6 12.2937 16.2073 9.07953
143 143 1 6 17.6376 2.41912 3.4418
144 144 1 6 19.2726 9.23632 7.07966
145 145 1 6 3.40147 17.8024 15.9741
146 146 1 6 6.47821 0.358285 4.84036
147 147 1 6 9.73719 15.2236 0.828405
148 148 1 6 8.38371 14.584 7.22607
149 149 1 6 5.76893 12.5749 10.6728
150 150 1 6 19.4457 14.6221 7.12774
151 151 1 6 4.39427 12.4701 1.39472
152 152 1 6 5.20047 6.19135 8.06403
153 153 1 6 7.71192 15.4284 10.4515
154 154 1 6 10.6107 13.091 4.72853
155 155 1 6 16.1754 15.8429 4.8378
156 156 1 6 12.9312 14.0419 5.2396
157 157 1 6 12.7741 13.107 19.29
158 158 1 6 11.7957 17.6497 17.6749
159 159 1 6 3.19508 14.7187 16.7489
160 160 1 6 3.56215 19.415 4.94576
161 161 1 6 2.71761 18.273 7.17168
162 162 1 6 4.20535 7.27678 12.1779
163 163 1 6 11.1117 11.1066 2.52149
164 164 1 6 12.5301 15.1978 15.2047
165 165 1 6 0.732472 17.19 15.4191
166 166 1 6 5.60427 2.41691 6.47479
167 167 1 6 5.89079 13.3024 5.51815
168 168 1 6 0.124531 8.65772 16.1339
169 169 1 6 13.716 8.08867 13.8647
170 170 1 6 17.1192 2.28681 6.66876
171 171 1 6 15.2477 14.3485 9.03013
172 172 1 6 14.1032 4.80143 12.3674
173 173 1 6 10.7566 13.4363 12.7876
174 174 1 6 6.18595 18.4719 2.96717
175 175 1 6 3.05521 9.31844 13.8245
176 176 1 6 16.0645 6.67267 11.8547
177 177 1 6 5.00075 13.1928 18.5255
178 178 1 6 19.649 1.46865 7.66059
179 179 1 6 14.8486 19.2032 2.47444
180 180 1 6 0.435966 7.18308 18.654
181 181 1 6 16.4169 5.99297 2.5562
182 182 1 6 17.8972 17.9055 16.0339
183 183 1 6 8.05446 8.30004 14.8225
184 184 1 6 11.0507 12.6903 15.6409
185 185 1 6 13.9548 3.38409 10.1433
186 186 1 6 3.66877 18.8223 12.4301
187 187 1 6 0.946841 1.98123 2.93113
188 188 1 6 3.07676 6.81634 19.4328
189 189 1 6 5.67711 11.8606 16.4015
190 190 1 6 15.7876 15.9874 19.2519
191 191 1 6 8.86783 5.26098 1.4326
192 192 1 6 10.1648 17.5005 4.64505
193 193 1 6 5.0317 3.8366 13.2801
194 194 1 6 0.00778976 14.686 19.3597
195 195 1 6 6.96276 0.393604 12.257
196 196 1 6 9.95353 0.572582 15.8845
197 197 1 6 12.6849 16.6181 6.00023
198 198 1 6 18.5179 4.92056 19.7669
199 199 1 6 11.2823 15.9835 12.3738
200 200 1 6 6.79582 12.4329 8.19843
201 201 1 6 16.8803 19.3084 5.32546
202 202 1 6 17.798 6.78603 16.2281
203 203 1 6 10.795 0.7772 8.6476
204 204 1 6 13.155 0.85001 5.95672
205 205 1 6 7.39113 10.0107 16.747
206 206 1 6 10.8807 3.1336 11.5978
207 207 1 6 3.3596 9.55477 4.08577
208 208 1 6 3.61394 15.6599 7.59518
209 209 1 6 19.1553 17.2668 7.97854
210 210 1 6 19.3878 11.7849 6.2564
211 211 1 6 1.87873 13.2622 7.6468
212 212 1 6 7.28205 3.48296 16.7855
213 213 1 6 4.41027 10.1357 10.2165
214 214 1 6 1.09599 16.4087 4.79968
215 215 1 6 7.61834 9.56787 2.97142
216 216 1 6 1.97019 17.201 2.40159
217 217 1 6 6.06405 14.9891 2.52966
218 218 1 6 8.19898 0.478707 18.0596
219 219 1 6 9.74496 16.9775 10.4853
220 220 1 6 18.7536 5.751 13.253
221 221 1 6 2.80793 14.2347 2.38113
222 222 1 6 9.33793 15.085 15.617
223 223 1 6 10.9299 18.7256 0.224873
224 224 1 6 16.9398 12.6703 10.9757
225 225 1 6 8.0218 18.9851 0.871884
226 226 1 6 3.07285 19.7266 2.23063
227 227 1 6 13.5629 11.4729 6.7274
228 228 1 6 3.87588 1.15413 19.2674
229 229 1 6 13.3441 7.08709 18.1581
230 230 1 6 14.6174 6.11906 15.6647
231 231 1 6 16.5832 10.4098 18.1027
232 232 1 6 12.8534 9.97687 12.6007
233 233 1 6 18.9398 16.6837 10.9144
234 234 1 6 15.6597 9.14637 10.0467
235 235 1 6 4.08784 1.22933 14.2725
236 236 1 6 14.4939 18.3932 5.19613
237 237 1 6 4.34299 9.22322 19.0957
238 238 1 6 16.6776 12.5301 14.2916
239 239 1 6 15.8706 11.4573 8.46512
240 240 1 6 7.01358 8.03682 18.3808
241 241 1 6 11.5141 1.5365 19.3409
242 242 1 6 14.458 0.910812 19.3014
243 243 1 6 7.51861 16.4104 4.51533
244 244 1 6 8.45123 3.76677 10.1447
245 245 1 6 11.4467 17.144 2.27451
246 246 1 6 3.91944 5.49285 1.92738
247 247 1 6 1.29157 16.4802 17.8219
248 248 1 6 18.1588 0.437128 11.3606
249 249 1 6 16.0112 6.76934 18.4855
250 250 1 6 1.48206 18.8838 19.0691
251 251 1 6 13.3895 0.441096 9.58562
252 252 1 6 17.4163 7.57143 6.57163
253 253 1 6 1.83162 1.1844 15.9983
254 254 1 6 8.37596 9.49293 10.6213
255 255 1 6 12.4093 9.77961 19.0555
256 256 1 6 18.7431 4.76049 2.69587
257 257 2 1 3.55371 18.1287 15.078
258 258 2 1 15.7292 17.7765 8.45669
259 259 2 1 18.8199 4.86603 12.8914
260 260 2 1 16.3129 15.2854 5.69418
261 261 2 1 4.70105 5.42711 8.38136
262 262 2 1 0.926233 18.7898 0.158015
263 263 2 1 9.55378 13.2092 7.5148
264 264 2 1 15.6718 16.6668 5.02711
265 265 2 1 12.1999 16.5419 2.25914
266 266 2 1 2.59142 18.2484 16.2235
267 267 2 1 5.1708 12.279 2.0696
268 268 2 1 11.6712 18.1095 16.7894
269 269 2 1 3.15832 19.5777 3.24487
270 270 2 1 15.0695 11.7732 7.95016
271 271 2 1 11.8148 14.655 18.3737
272 272 2 1 10.327 9.41778 16.4669
273 273 2 1 1.63215 15.6003 4.98613
274 274 2 1 5.37226 1.84674 7.3144
275 275 2 1 3.20437 8.60832 13.2355
276 276 2 1 17.0061 1.4895 9.87275
277 277 2 1 17.7914 12.1755 5.30003
278 278 2 1 3.23909 4.58571 4.8567
279 279 2 1 3.33903 15.141 6.82054
280 280 2 1 7.72607 14.5549 10.9502
281 281 2 1 7.07571 6.6572 9.8457
282 282 2 1 9.83114 11.7028 7.64348
283 283 2 1 2.79324 17.3142 7.45597
284 284 2 1 13.2735 2.7706 14.6863
285 285 2 1 14.1151 4.29031 11.5338
286 286 2 1 14.3354 12.3379 2.66631
287 287 2 1 11.7972 1.75619 11.9321
288 288 2 1 16.8561 9.47441 3.50357
289 289 2 1 4.35684 19.7779 5.29583
290 290 2 1 2.27838 0.570221 2.33724
291 291 2 1 7.94312 9.27059 3.8788
292 292 2 1 5.20264 8.84419 18.8732
293 293 2 1 8.98579 8.41658 14.6652
294 294 2 1 14.4605 0.384719 2.61797
295 295 2 1 13.4615 1.69156 5.68743
296 296 2 1 15.4389 19.2823 14.3669
297 297 2 1 14.1645 1.17045 14.5382
298 298 2 1 19.6093 15.5774 7.23791
299 299 2 1 18.3523 4.67901 0.964053
300 300 2 1 5.61972 15.9401 12.7782
301 301 2 1 2.09284 3.54236 5.04324
302 302 2 1 9.16123 5.00284 13.6358
303 303 2 1 16.5558 19.2644 2.29677
304 304 2 1 13.1866 0.708183 10.4953
305 305 2 1 16.8613 6.16061 11.5707
306 306 2 1 17.1641 5.33586 2.94305
307 307 2 1 3.58952 14.6166 10.3956
308 308 2 1 17.2155 11.8336 11.4273
309 309 2 1 0.338792 12.9597 13.56
310 310 2 1 19.5004 -0.139388 10.3167
311 311 2 1 14.9115 3.23943 6.03582
312 312 2 1 16.8141 10.5258 4.71965
313 313 2 1 12.0984 9.66918 0.217454
314 314 2 1 19.1779 14.7695 10.6248
315 315 2 1 18.0392 2.0435 6.94601
316 316 2 1 10.1824 19.328 12.4795
317 317 2 1 19.5084 17.5175 15.3842
318 318 2 1 18.6461 12.5527 13.701
319 319 2 1 17.951 -0.102178 12.1523
320 320 2 1 10.4303 1.16702 7.85321
321 321 2 1 4.64876 9.35259 10.7988
322 322 2 1 -0.222065 2.20254 8.30015
323 323 2 1 8.82722 6.26589 1.3765
324 324 2 1 10.1421 18.5089 4.76428
325 325 2 1 13.3583 17.3435 5.80287
326 326 2 1 4.09907 18.568 17.6237
327 327 2 1 9.64051 0.403479 16.8006
328 328 2 1 5.19566 12.2806 17.1501
329 329 2 1 8.32401 13.799 18.1383
330 330 2 1 11.5786 0.499076 5.17881
331 331 2 1 13.386 8.97776 13.2416
332 332 2 1 15.2861 6.09219 12.1016
333 333 2 1 14.5103 18.7648 3.27368
334 334 2 1 7.6483 9.00775 15.4107
335 335 2 1 18.1595 9.59184 18.8384
336 336 2 1 15.0745 7.16154 18.6147
337 337 2 1 7.10898 11.566 7.99114
338 338 2 1 7.25079 7.40195 17.7039
339 339 2 1 5.75058 13.7287 18.4273
340 340 2 1 19.6086 6.34542 18.8762
341 341 2 1 16.1507 6.43125 3.3832
342 342 2 1 10.6841 16.2322 13.0857
343 343 2 1 14.4861 2.51707 3.73079
344 344 2 1 17.3444 18.3616 16.704
345 345 2 1 10.5157 12.8087 14.8423
346 346 2 1 -0.0196797 1.97391 2.96538
347 347 2 1 15.2051 5.73415 8.56035
348 348 2 1 1.11644 4.602 1.26781
349 349 2 1 19.0197 15.0989 0.198555
350 350 2 1 17.035 6.86419 16.8936
351 351 2 1 8.48639 3.28234 6.84836
352 352 2 1 6.45641 19.4094 12.6737
353 353 2 1 19.5361 17.965 8.56385
354 354 2 1 11.3676 4.76558 2.09446
355 355 2 1 4.32343 16.1698 7.27147
356 356 2 1 19.0706 3.95946 9.67518
357 357 2 1 3.44316 6.24435 0.428277
358 358 2 1 -0.0394446 13.7304 19.5329
359 359 2 1 17.0817 5.337 9.56791
360 360 2 1 3.77169 5.05167 10.7303
361 361 2 1 3.27948 10.5565 4.31659
362 362 2 1 13.0061 6.72846 5.21308
363 363 2 1 11.7942 16.7832 5.62567
364 364 2 1 6.66154 12.839 15.456
365 365 2 1 10.2472 16.6723 9.70023
366 366 2 1 13.8339 14.7357 2.5091
367 367 2 1 15.6206 12.8732 4.19276
368 368 2 1 5.04808 11.1532 16.1113
369 369 2 1 10.4846 11.9936 1.02721
370 370 2 1 6.40467 0.947997 11.6982
371 371 2 1 12.9582 15.0175 5.37147
372 372 2 1 10.3879 12.2751 16.3376
373 373 2 1 17.7871 18.9364 5.14099
374 374 2 1 7.252 3.19869 3.38955
375 375 2 1 6.58023 3.19498 17.3251
376 376 2 1 1.1173 1.98928 3.88687
377 377 2 1 10.0218 0.577087 9.26069
378 378 2 1 3.72861 14.1935 17.4323
379 379 2 1 15.8513 13.87 11.7682
380 380 2 1 7.50379 0.581066 17.388
381 381 2 1 13.2744 1.83487 13.1986
382 382 2 1 6.7799 9.19027 3.27281
383 383 2 1 2.50293 16.5256 2.00208
384 384 2 1 11.1062 18.2754 19.1182
385 385 2 1 3.518 13.7275 1.98644
386 386 2 1 5.51819 -0.105772 16.7788
387 387 2 1 16.1798 12.6868 15.9065
388 388 2 1 6.66661 10.6652 16.8672
389 389 2 1 10.4718 4.67719 14.1284
390 390 2 1 9.04557 16.3478 14.3926
391 391 2 1 10.2623 2.67588 6.036
392 392 2 1 3.55322 0.944633 0.454453
393 393 2 1 6.55143 5.76376 12.6892
394 394 2 1 13.1558 2.78856 9.96915
395 395 2 1 13.4815 14.712 0.947715
396 396 2 1 14.0984 6.55531 16.3779
397 397 2 1 15.9873 10.2184 17.3647
398 398 2 1 2.27812 13.6459 8.46735
399 399 2 1 3.56101 10.3992 10.6238
400 400 2 1 14.3058 14.0681 9.01233
401 401 2 1 12.8976 9.55628 11.6604
402 402 2 1 12.726 7.60268 18.6623
403 403 2 1 2.376 18.0859 2.20465
404 404 2 1 16.2706 13.3218 13.7986
405 405 2 1 16.8402 11.2945 17.7978
406 406 2 1 17.1274 0.385027 5.83564
407 407 2 1 7.5599 18.975 19.7789
408 408 2 1 5.97298 3.59853 13.5501
409 409 2 1 18.373 16.7128 0.898155
410 410 2 1 17.8931 8.90133 1.17657
411 411 2 1 10.7634 16.2639 11.609
412 412 2 1 7.31054 9.41078 17.5395
413 413 2 1 13.5283 1.25448 19.0374
414 414 2 1 8.3805 16.7439 4.37252
415 415 2 1 15.8601 11.9307 9.28808
416 416 2 1 13.8954 10.9416 5.94443
417 417 2 1 18.1291 8.14364 6.92468
418 418 2 1 11.1699 0.608988 19.403
419 419 2 1 13.1067 6.17024 18.4042
420 420 2 1 11.5305 17.8791 1.64072
421 421 2 1 8.08829 0.270003 1.01604
422 422 2 1 15.4207 18.7265 5.47762
423 423 2 1 16.3672 11.7105 13.8473
424 424 2 1 1.94471 13.8585 2.05535
425 425 2 1 10.5623 17.3502 3.76585
426 426 2 1 3.33869 1.30416 14.8611
427 427 2 1 1.10389 5.06163 4.82856
428 428 2 1 3.77084 0.522466 13.7727
429 429 2 1 15.8538 9.87007 9.38197
430 430 2 1 11.126 3.37957 2.67904
431 431 2 1 10.5879 7.15731 15.7896
432 432 2 1 8.33214 3.74128 9.15618
433 433 2 1 18.4989 1.31528 11.7228
434 434 2 1 3.30249 1.91762 19.0639
435 435 2 1 7.02362 3.61079 7.31117
436 436 2 1 16.2885 6.34971 19.3135
437 437 2 1 1.92571 0.0328406 19.0308
438 438 2 1 11.439 16.1463 17.878
439 439 2 1 0.310083 18.3459 4.94323
440 440 2 1 1.01259 15.7871 18.4931
441 441 2 1 11.3223 9.30936 12.8407
442 442 2 1 7.31608 2.94387 15.9852
443 443 2 1 14.3925 19.7027 19.4122
444 444 2 1 7.46615 15.6849 3.83601
445 445 2 1 19.1285 17.0507 10.0418
446 446 2 1 7.08423 -0.0306709 5.47681
447 447 2 1 7.66548 7.92874 19.0368
448 448 2 1 8.21088 14.6962 6.29296
449 449 2 1 3.21838 4.82888 1.97904
450 450 2 1 3.7367 6.16334 2.55425
451 451 2 1 13.7526 9.58799 15.6578
452 452 2 1 10.1096 3.22795 11.0163
453 453 2 1 9.57229 16.8596 6.38932
454 454 2 1 1.54323 3.25146 1.76056
455 455 2 1 13.119 6.44897 7.37924
456 456 2 1 11.5503 1.88068 0.553456
457 457 2 1 8.90229 16.1461 7.55519
458 458 2 1 9.97205 15.4072 19.5853
459 459 2 1 19.5195 9.55475 14.2155
460 460 2 1 13.0883 5.79677 2.42144
461 461 2 1 1.80285 1.9184 16.6412
462 462 2 1 8.34753 10.0766 9.89692
463 463 2 1 6.35401 19.4264 4.10583
464 464 2 1 19.3155 5.05863 3.43894
465 465 2 1 17.1916 3.23576 6.41673
466 466 2 1 11.0419 2.43239 17.9036
467 467 2 1 0.939693 1.04853 15.7183
468 468 2 1 14.8653 10.0736 12.9284
469 469 2 1 18.89 14.9713 17.5254
470 470 2 1 12.7917 11.5816 12.2297
471 471 2 1 0.0797913 0.704982 8.21607
472 472 2 1 0.28395 14.6355 15.5045
473 473 2 1 3.47923 9.78073 0.718344
474 474 2 1 7.66009 1.79502 13.8552
475 475 2 1 0.677116 16.9329 12.437
476 476 2 1 13.0525 7.93777 4.31939
477 477 2 1 2.96579 9.85772 2.20276
478 478 2 1 18.1955 1.52286 15.5553
479 479 2 1 17.9946 16.9332 11.1214
480 480 2 1 19.2043 5.52359 14.1316
481 481 2 1 1.35787 6.16582 10.9806
482 482 2 1 5.28233 11.7364 10.7382
483 483 2 1 8.645 11.078 17.2223
484 484 2 1 7.26543 5.27805 16.221
485 485 2 1 9.60358 8.11424 1.20178
486 486 2 1 2.31725 6.66497 8.2234
487 487 2 1 17.6656 14.3699 16.668
488 488 2 1 5.40148 15.2194 1.86567
489 489 2 1 13.5048 11.1868 16.8414
490 490 2 1 18.833 5.47385 16.067
491 491 2 1 2.33286 12.4469 5.40961
492 492 2 1 5.83836 5.87315 10.0939
493 493 2 1 17.858 19.3643 3.12576
494 494 2 1 3.62484 7.53895 19.5342
495 495 2 1 12.3989 12.1849 16.2585
496 496 2 1 4.8244 17.6484 1.79973
497 497 2 1 9.93818 18.7072 0.384216
498 498 2 1 16.1275 15.5414 18.473
499 499 2 1 12.9011 17.0134 14.8461
500 500 2 1 7.46226 6.74513 15.6894
501 501 2 1 1.398 16.7768 13.9844
502 502 2 1 16.5477 2.25046 8.63335
503 503 2 1 7.15459 11.2541 2.81995
504 504 2 1 5.58124 16.2484 14.796
505 505 2 1 19.1882 2.76875 15.4257
506 506 2 1 15.5125 10.2414 -0.112345
507 507 2 1 13.4462 4.87913 15.4243
508 508 2 1 4.45594 15.2771 15.4
509 509 2 1 19.3045 14.0754 9.24737
510 510 2 1 17.267 18.5226 14.3557
511 511 2 1 15.7813 4.85149 1.61224
512 512 2 1 16.2817 9.42514 13.0355
513 513 2 1 2.66649 9.08746 4.45786
514 514 2 1 9.89783 13.2537 12.4054
515 515 2 1 2.38802 1.21885 5.56881
516 516 2 1 9.83349 9.56816 12.4929
517 517 2 1 0.937536 1.78688 6.29373
518 518 2 1 7.64119 12.9806 13.0041
519 519 2 1 7.2461 12.8144 2.71076
520 520 2 1 12.6654 1.8283 2.59939
521 521 2 1 17.5417 1.67832 2.79754
522 522 2 1 9.63082 11.7485 18.4009
523 523 2 1 2.28517 11.7892 11.2662
524 524 2 1 5.30997 6.05971 15.4187
525 525 2 1 16.7293 18.2242 12.9853
526 526 2 1 2.70003 6.75954 11.4295
527 527 2 1 1.75657 3.47497 19.234
528 528 2 1 8.92579 16.4243 10.5492
529 529 2 1 0.200309 17.8441 1.81142
530 530 2 1 0.98677 5.07951 6.63958
531 531 2 1 3.92455 14.8314 8.91707
532 532 2 1 16.5961 15.911 0.164136
533 533 2 1 8.40129 19.6858 11.4022
534 534 2 1 14.6938 6.86961 15.0082
535 535 2 1 15.4563 9.34677 1.22274
536 536 2 1 12.5815 12.9294 9.94804
537 537 2 1 4.37367 12.252 13.1586
538 538 2 1 2.45082 3.82537 17.8253
539 539 2 1 11.9105 12.9976 8.49493
540 540 2 1 4.3388 18.1158 12.6776
541 541 2 1 1.48843 16.6521 3.93635
542 542 2 1 13.1241 12.2182 6.37549
543 543 2 1 8.78897 8.68023 10.2148
544 544 2 1 12.0075 7.63642 1.71214
545 545 2 1 11.0822 4.32444 4.84186
546 546 2 1 1.88208 7.89204 6.13761
547 547 2 1 8.36593 2.11425 1.96932
548 548 2 1 3.21341 14.3956 12.7989
549 549 2 1 17.5315 14.2518 7.3953
550 550 2 1 6.80456 15.6769 10.6338
551 551 2 1 17.0955 2.30448 18.0104
552 552 2 1 17.7774 13.1772 10.7131
553 553 2 1 7.75936 2.37453 0.567851
554 554 2 1 7.17452 9.20215 11.771
555 555 2 1 14.8426 17.0924 18.5644
556 556 2 1 14.3063 11.0746 1.62003
557 557 2 1 16.1621 7.57514 9.66912
558 558 2 1 18.141 15.5823 1.92685
559 559 2 1 16.0644 3.76944 0.500063
560 560 2 1 14.95 12.989 16.8051
561 561 2 1 8.38456 3.1278 14.0694
562 562 2 1 19.6682 9.29887 8.01699
563 563 2 1 2.9216 18.1676 12.4559
564 564 2 1 15.4794 14.4447 4.00426
565 565 2 1 15.6352 14.5945 9.85581
566 566 2 1 6.37133 18.2826 14.9681
567 567 2 1 0.452628 8.51233 5.8545
568 568 2 1 6.19684 12.7234 4.82744
569 569 2 1 3.59191 10.9002 13.2381
570 570 2 1 0.591109 14.2348 7.25298
571 571 2 1 9.39049 18.5318 10.8057
572 572 2 1 14.1392 4.35467 19.3583
573 573 2 1 0.293213 8.66015 10.1451
574 574 2 1 16.887 7.62196 13.2933
575 575 2 1 6.36729 3.57851 0.785055
576 576 2 1 7.71719 6.62806 12.8132
577 577 2 1 7.18062 8.89008 13.258
578 578 2 1 7.28747 12.5342 11.4612
579 579 2 1 12.7403 7.5986 10.7222
580 580 2 1 1.28504 7.04055 19.1606
581 581 2 1 13.9754 8.50744 10.1307
582 582 2 1 7.18492 17.6392 13.8899
583 583 2 1 7.56594 14.1756 7.5969
584 584 2 1 5.85801 0.0643948 8.01559
585 585 2 1 16.0737 16.0892 12.3071
586 586 2 1 19.3667 8.56754 19.121
587 587 2 1 11.4616 9.01116 2.27623
588 588 2 1 13.1396 3.69592 18.4546
589 589 2 1 1.13904 9.86034 9.94994
590 590 2 1 16.4842 7.22021 8.13006
591 591 2 1 13.9178 10.2556 3.71261
592 592 2 1 7.20611 1.80222 3.99231
593 593 2 1 11.2808 1.09775 3.01865
594 594 2 1 12.4799 0.653282 9.2479
595 595 2 1 9.43619 13.6383 3.80915
596 596 2 1 16.9614 8.09952 5.91419
597 597 2 1 1.36839 11.9004 17.7402
598 598 2 1 5.6678 1.38493 9.00469
599 599 2 1 1.4485 11.3282 0.799154
600 600 2 1 2.90645 10.3928 16.463
601 601 2 1 19.4635 12.3643 1.91163
602 602 2 1 14.0027 19.1892 5.02166
603 603 2 1 18.9443 10.0725 6.75646
604 604 2 1 5.51463 2.38177 19.7237
605 605 2 1 4.32036 15.9166 11.9509
606 606 2 1 5.11413 4.14813 5.87514
607 607 2 1 10.5766 9.23686 14.9523
608 608 2 1 16.816 4.19038 15.3181
609 609 2 1 14.8314 9.56096 4.79265
610 610 2 1 12.3251 16.6493 8.14377
611 611 2 1 10.272 9.82305 8.00533
612 612 2 1 12.4412 10.1871 7.58102
613 613 2 1 8.12016 4.63363 10.4711
614 614 2 1 15.5868 17.4045 11.3836
615 615 2 1 0.724298 12.1602 16.3583
616 616 2 1 8.58482 14.4927 15.6191
617 617 2 1 16.921 3.9253 10.1095
618 618 2 1 12.2709 14.8575 16.0651
619 619 2 1 14.0386 18.6331 10.0506
620 620 2 1 6.97761 8.75252 5.83596
621 621 2 1 8.42384 4.57702 17.9715
622 622 2 1 12.7478 17.7913 17.6725
623 623 2 1 10.0477 6.62845 10.4172
624 624 2 1 17.3898 7.66187 14.7983
625 625 2 1 0.0751425 10.909 0.232362
626 626 2 1 11.1049 14.3661 12.5829
627 627 2 1 15.7207 0.28 17.8924
628 628 2 1 8.82604 9.72064 7.40682
629 629 2 1 15.802 9.49159 10.9216
630 630 2 1 8.86609 2.13859 5.30256
631 631 2 1 8.96281 14.3087 2.4905
632 632 2 1 1.7692 14.2325 15.8927
633 633 2 1 14.4402 13.8324 12.3088
634 634 2 1 6.58441 18.0039 7.09826
635 635 2 1 12.3496 5.96694 12.315
636 636 2 1 9.41877 17.8405 13.8468
637 637 2 1 3.70188 9.44844 15.4831
638 638 2 1 3.68476 -0.0220789 10.6749
639 639 2 1 0.566344 4.97162 15.929
640 640 2 1 13.6975 4.15096 5.98367
641 641 2 1 0.2992 2.89707 12.3485
642 642 2 1 18.9391 2.4799 13.4013
643 643 2 1 5.01231 7.85943 12.1557
644 644 2 1 2.7253 6.06834 17.529
645 645 2 1 19.0511 13.5302 2.9506
646 646 2 1 9.86299 13.285 0.39652
647 647 2 1 18.4289 7.44006 16.535
648 648 2 1 4.58839 19.5164 18.7466
649 649 2 1 1.30923 19.7293 9.79216
650 650 2 1 14.2514 4.54402 8.64991
651 651 2 1 1.39458 17.3741 18.2874
652 652 2 1 0.465281 11.6647 5.66204
653 653 2 1 9.71314 5.03387 1.80213
654 654 2 1 10.3628 15.8396 1.33675
655 655 2 1 15.9572 14.089 7.73027
656 656 2 1 2.50439 2.04249 10.7605
657 657 2 1 8.3494 8.22808 6.15633
658 658 2 1 9.13081 4.8595 19.3149
659 659 2 1 4.90959 17.4137 5.36609
660 660 2 1 14.9433 18.2795 17.429
661 661 2 1 4.65624 17.8541 0.277743
662 662 2 1 12.339 14.5772 14.4963
663 663 2 1 10.4802 19.8095 14.0125
664 664 2 1 6.29298 16.6938 5.43094
665 665 2 1 3.88048 0.515685 9.32531
666 666 2 1 13.3829 5.62725 0.902071
667 667 2 1 16.6261 12.4063 6.19378
668 668 2 1 12.0638 12.4754 19.4977
669 669 2 1 3.36172 5.60304 16.0412
670 670 2 1 11.4167 7.21508 12.5581
671 671 2 1 0.440942 9.54701 16.3954
672 672 2 1 2.29616 15.4635 12.1571
673 673 2 1 13.9119 18.7885 14.8201
674 674 2 1 1.20604 4.38791 7.96802
675 675 2 1 8.09597 18.3572 7.62827
676 676 2 1 12.0546 4.22546 15.949
677 677 2 1 0.130008 10.608 13.1414
678 678 2 1 5.00019 12.8355 19.4458
679 679 2 1 17.7786 16.9927 16.2655
680 680 2 1 8.50087 1.37158 18.295
681 681 2 1 19.3826 12.6729 6.57048
682 682 2 1 12.355 15.2311 8.98224
683 683 2 1 5.34764 0.463268 15.4352
684 684 2 1 11.9604 0.296059 12.4746
685 685 2 1 18.0288 4.21983 19.2547
686 686 2 1 4.11418 13.8054 5.31268
687 687 2 1 16.8305 5.22103 6.73584
688 688 2 1 5.7995 4.89924 2.38585
689 689 2 1 4.7078 4.1928 11.5437
690 690 2 1 17.597 15.6431 3.91769
691 691 2 1 2.88802 15.5496 17.1479
692 692 2 1 8.61556 6.91625 8.02778
693 693 2 1 10.5696 3.72404 12.3363
694 694 2 1 19.1673 7.10321 12.2986
695 695 2 1 13.8579 17.0771 9.61094
696 696 2 1 7.46354 4.82602 2.16991
697 697 2 1 6.35199 12.4167 9.079
698 698 2 1 2.62379 3.13115 11.8604
699 699 2 1 1.75694 18.3975 7.36038
700 700 2 1 15.8408 16.3764 7.8479
701 701 2 1 6.33301 14.1503 14.6702
702 702 2 1 0.633059 6.48472 5.07752
703 703 2 1 18.0712 5.29145 5.92845
704 704 2 1 11.4262 13.6016 4.88588
705 705 2 1 12.715 9.34876 16.7368
706 706 2 1 15.6852 0.290242 16.4278
707 707 2 1 17.2845 7.72566 2.00993
708 708 2 1 4.94534 5.57655 6.48606
709 709 2 1 18.218 17.4752 8.05899
710 710 2 1 0.744871 3.36556 9.9524
711 711 2 1 4.79666 8.43963 4.38111
712 712 2 1 10.844 5.01067 6.23332
713 713 2 1 7.1015 2.58702 10.0694
714 714 2 1 4.45036 3.13204 13.5606
715 715 2 1 12.0908 12.9187 12.0068
716 716 2 1 3.86236 11.6518 1.32238
717 717 2 1 4.48491 6.8878 7.92982
718 718 2 1 14.682 2.76936 9.98711
719 719 2 1 12.1769 18.1104 14.0093
720 720 2 1 15.6178 4.80731 15.7628
721 721 2 1 4.8665 5.06623 14.2261
722 722 2 1 9.8814 6.23855 16.8861
723 723 2 1 1.74877 12.3484 7.87803
724 724 2 1 2.14236 8.21052 8.5303
725 725 2 1 18.4466 3.8917 3.06792
726 726 2 1 12.2557 9.16764 8.8991
727 727 2 1 10.2179 1.49069 16.1218
728 728 2 1 0.408867 0.122391 5.16344
729 729 2 1 10.3346 3.61053 17.5073
730 730 2 1 10.0341 0.770316 5.27422
731 731 2 1 8.15066 8.36183 1.80394
732 732 2 1 3.15585 19.0029 5.76124
733 733 2 1 13.6917 13.9021 4.64484
734 734 2 1 3.74746 9.37256 18.2779
735 735 2 1 13.4231 0.70925 6.8603
736 736 2 1 3.17402 14.3311 4.30576
737 737 2 1 5.12029 6.89088 4.53685
738 738 2 1 18.6643 18.5802 1.50199
739 739 2 1 0.874418 12.2516 10.6399
740 740 2 1 14.7709 2.87778 2.20094
741 741 2 1 13.0866 12.7058 18.4321
742 742 2 1 5.47239 14.5337 3.13938
743 743 2 1 10.8352 11.5885 3.39711
744 744 2 1 13.3519 9.64286 19.0549
745 745 2 1 1.45212 12.531 4.17832
746 746 2 1 12.0578 11.3306 2.43936
747 747 2 1 0.855075 16.7435 16.2228
748 748 2 1 8.20971 5.8356 7.00283
749 749 2 1 12.239 7.71707 7.15049
750 750 2 1 6.81251 18.6657 2.20635
751 751 2 1 4.18931 6.97278 13.1205
752 752 2 1 8.21121 15.3607 17.8582
753 753 2 1 2.06991 9.49853 13.8775
754 754 2 1 13.8403 4.2702 13.0978
755 755 2 1 16.4697 3.50511 17.3956
756 756 2 1 10.37 12.7495 5.59811
757 757 2 1 5.98527 12.7918 6.38254
758 758 2 1 0.726899 7.99537 16.4342
759 759 2 1 19.1885 15.6174 4.01069
760 760 2 1 5.59292 3.07265 10.2123
761 761 2 1 5.15847 13.218 10.4175
762 762 2 1 6.60478 17.6224 3.31624
763 763 2 1 17.5729 2.04979 4.33097
764 764 2 1 5.62652 1.83393 5.69678
765 765 2 1 14.1675 7.48396 13.2267
766 766 2 1 9.99064 14.7849 16.3006
767 767 2 1 10.409 7.47021 9.29133
768 768 2 1 19.6052 8.51109 12.3422
769 1 3 -8.0 7.5557 2.73681 14.0946
770 2 3 -8.0 -0.0593415 12.7883 2.76715
771 3 3 -8.0 6.76348 5.97397 10.3675
772 4 3 -8.0 1.89396 4.0059 1.24618
773 5 3 -8.0 19.3768 13.8725 10.1885
774 6 3 -8.0 0.365035 9.73214 13.4506
775 7 3 -8.0 18.8032 9.34764 19.505
776 8 3 -8.0 15.8325 10.2618 12.8806
777 9 3 -8.0 3.29118 14.3029 5.27843
778 10 3 -8.0 2.86152 10.2114 1.31804
779 11 3 -8.0 6.61273 4.29921 2.30464
780 12 3 -8.0 12.9764 12.4554 11.7763
781 13 3 -8.0 10.2055 12.5118 7.3063
782 14 3 -8.0 17.5053 19.4278 2.23032
783 15 3 -8.0 4.53023 4.34997 10.6323
784 16 3 -8.0 18.2597 15.1252 16.8155
785 17 3 -8.0 16.4633 2.23752 9.59829
786 18 3 -8.0 7.05421 13.5092 14.8369
787 19 3 -8.0 5.27821 16.3353 11.9242
788 20 3 -8.0 2.20224 5.86784 11.3266
789 21 3 -8.0 1.51044 16.6635 12.9076
790 22 3 -8.0 1.51063 1.78787 5.4721
791 23 3 -8.0 19.404 4.65938 15.9333
792 24 3 -8.0 10.697 0.199496 4.77947
793 25 3 -8.0 11.1196 15.2483 17.9443
794 26 3 -8.0 18.9185 1.90067 14.9846
795 27 3 -8.0 6.95796 6.21785 16.3269
796 28 3 -8.0 4.65652 17.1854 0.974573
797 29 3 -8.0 12.6522 5.88406 1.53788
798 30 3 -8.0 19.5109 7.81572 11.6527
799 31 3 -8.0 1.51015 11.4703 10.7187
800 32 3 -8.0 16.9787 18.9444 13.5588
801 33 3 -8.0 12.7091 4.21737 15.2281
802 34 3 -8.0 6.65075 12.0657 2.91939
803 35 3 -8.0 5.09273 15.3644 14.6472
804 36 3 -8.0 10.4062 8.95182 12.9535
805 37 3 -8.0 14.9633 9.96136 0.647878
806 38 3 -8.0 7.71398 14.5119 18.0076
807 39 3 -8.0 12.6092 13.3953 9.04747
808 40 3 -8.0 2.98775 14.8626 11.9404
809 41 3 -8.0 9.35618 19.544 11.0652
810 42 3 -8.0 8.83713 17.0344 13.6675
811 43 3 -8.0 13.822 11.4783 2.46954
812 44 3 -8.0 5.53136 7.76186 4.36862
813 45 3 -8.0 4.55027 5.89951 14.7984
814 46 3 -8.0 19.3879 18.044 1.10374
815 47 3 -8.0 16.9071 3.19985 18.2225
816 48 3 -8.0 2.44169 4.19399 4.46985
817 49 3 -8.0 11.2257 4.25474 5.8153
818 50 3 -8.0 2.11062 3.07265 18.3866
819 51 3 -8.0 6.02215 0.438525 16.0724
820 52 3 -8.0 19.5915 19.168 4.7003
821 53 3 -8.0 7.95147 3.88373 7.35132
822 54 3 -8.0 15.3691 4.14366 1.00227
823 55 3 -8.0 3.84538 14.2013 9.61826
824 56 3 -8.0 3.48738 11.9162 13.0128
825 57 3 -8.0 1.1795 7.99422 5.44739
826 58 3 -8.0 17.9438 15.812 1.00117
827 59 3 -8.0 19.394 12.4455 13.1191
828 60 3 -8.0 9.75412 4.30349 13.593
829 61 3 -8.0 13.2203 4.34216 19.1089
830 62 3 -8.0 0.713601 9.13213 9.4642
831 63 3 -8.0 6.18561 17.8159 14.1324
832 64 3 -8.0 6.59854 8.85757 12.4621
833 65 3 -8.0 8.03299 12.9103 12.0622
834 66 3 -8.0 12.9973 8.4241 10.262
835 67 3 -8.0 6.20929 3.09696 19.6354