DPLR conf script

256 atoms
3 atom types
64 bonds
1 bond types

0.0 12.45 xlo xhi
0.0 12.45 ylo yhi
0.0 12.45 zlo zhi

Masses

1 15.999
2 2.014 
3 15.999

Atoms

1 1 1 6 6.501918 0.3462069 3.006559
2 2 1 6 5.277299 11.70286 0.4800217
3 3 1 6 9.086982 8.510869 11.88521
4 4 1 6 5.8893 7.609736 2.444108
5 5 1 6 0.9172956 6.204844 5.913576
6 6 1 6 0.9379262 6.033487 0.2926221
7 7 1 6 11.06102 6.015332 9.092432
8 8 1 6 3.697776 5.463172 0.9379642
9 9 1 6 3.104811 8.858211 11.3939
10 10 1 6 5.102712 12.09019 10.30452
11 11 1 6 12.30645 10.25297 7.179951
12 12 1 6 11.46197 2.516035 8.499961
13 13 1 6 1.488684 0.1489796 6.298539
14 14 1 6 8.525468 5.933551 6.676289
15 15 1 6 8.999869 4.446514 11.11264
16 16 1 6 1.20106 0.8900716 11.89308
17 17 1 6 3.306729 0.5633268 1.364123
18 18 1 6 6.465358 9.80068 8.416606
19 19 1 6 5.194492 2.520435 10.82673
20 20 1 6 6.553968 2.686564 4.637989
21 21 1 6 11.13973 0.05119359 5.243877
22 22 1 6 2.603651 12.37658 8.845721
23 23 1 6 1.215719 3.520407 9.770025
24 24 1 6 11.45874 9.030302 1.682474
25 25 1 6 7.485986 12.27081 8.451545
26 26 1 6 10.85689 7.921632 6.451804
27 27 1 6 9.193433 0.0980996 3.141667
28 28 1 6 7.454047 2.51566 9.171353
29 29 1 6 12.00013 12.1154 9.452725
30 30 1 6 1.313268 10.55291 2.775097
31 31 1 6 4.730613 1.512089 6.140988
32 32 1 6 5.785586 10.19373 4.222656
33 33 1 6 8.836825 9.066541 5.12498
34 34 1 6 1.22261 9.237692 5.203458
35 35 1 6 11.47016 4.569575 6.334662
36 36 1 6 4.350823 5.074367 7.683926
37 37 1 6 4.647175 10.70004 6.537544
38 38 1 6 8.208631 11.60415 5.767424
39 39 1 6 9.373019 5.585066 2.636236
40 40 1 6 3.178716 0.03082356 4.271953
41 41 1 6 6.910652 9.556989 0.7775105
42 42 1 6 5.718159 8.345103 10.70856
43 43 1 6 11.17963 9.383263 9.880341
44 44 1 6 2.445417 4.733824 3.939966
45 45 1 6 11.35472 3.089997 3.928464
46 46 1 6 6.208991 6.131487 9.556965
47 47 1 6 8.754644 3.931243 4.867566
48 48 1 6 11.29134 7.130146 3.896224
49 49 1 6 3.424567 8.776265 1.910216
50 50 1 6 0.9706659 7.615978 10.37047
51 51 1 6 1.981877 6.082941 8.435763
52 52 1 6 9.103652 0.2348636 10.64222
53 53 1 6 1.575276 2.817952 6.32908
54 54 1 6 3.442484 2.489914 8.745883
55 55 1 6 7.69724 6.2772 0.4005078
56 56 1 6 8.04947 1.115918 0.5970098
57 57 1 6 1.297404 6.741042 2.831773
58 58 1 6 9.136324 10.00912 2.626338
59 59 1 6 10.96452 4.177359 0.934147
60 60 1 6 6.32324 7.125068 4.965249
61 61 1 6 0.9827082 2.664177 2.156698
62 62 1 6 5.187356 2.568551 1.126306
63 63 1 6 11.01079 1.26739 1.125121
64 64 1 6 5.023014 4.756367 4.493458
65 65 2 1 5.327498 11.84563 11.24185
66 66 2 1 11.53424 10.25519 6.551502
67 67 2 1 0.3969368 9.675864 6.620091
68 68 2 1 10.77768 3.17284 8.598731
69 69 2 1 11.09748 1.713807 8.846855
70 70 2 1 1.993687 12.27545 7.034485
71 71 2 1 0.6610986 12.21908 6.551606
72 72 2 1 9.465847 4.701821 10.28711
73 73 2 1 9.775374 4.24743 11.70959
74 74 2 1 0.5324563 1.061781 0.1507961
75 75 2 1 1.25614 1.728024 11.38873
76 76 2 1 2.621602 0.752013 0.6605991
77 77 2 1 2.811649 0.3654888 2.187847
78 78 2 1 6.332619 9.209814 9.206338
79 79 2 1 7.173088 9.410804 7.846082
80 80 2 1 6.059372 2.83174 10.61463
81 81 2 1 5.077057 2.671473 11.83233
82 82 2 1 6.584687 2.006581 3.890999
83 83 2 1 5.864749 2.299815 5.286304
84 84 2 1 10.8691 0.7800493 5.822015
85 85 2 1 10.52457 0.1144247 4.540668
86 86 2 1 2.71667 0.8608732 8.738961
87 87 2 1 3.442435 12.14066 9.181308
88 88 2 1 0.4100774 3.140747 9.35922
89 89 2 1 1.934879 3.024479 9.397258
90 90 2 1 11.4359 8.32031 2.337626
91 91 2 1 11.03588 8.764591 0.883015
92 92 2 1 10.17046 7.303508 6.736111
93 93 2 1 11.18854 7.607393 5.540924
94 94 2 1 8.262538 0.2896598 2.924869
95 95 2 1 9.284596 11.55956 2.968699
96 96 2 1 8.11466 2.497961 9.874561
97 97 2 1 7.333328 1.476465 9.008661
98 98 2 1 0.3077985 12.39703 9.9338
99 99 2 1 12.23646 11.39461 8.850692
100 100 2 1 0.5293739 10.37887 2.220392
101 101 2 1 2.025058 10.03683 2.329946
102 102 2 1 4.485936 1.804194 7.016018
103 103 2 1 4.015396 1.379809 5.540662
104 104 2 1 5.306003 10.14835 5.090292
105 105 2 1 6.446266 9.491458 4.240201
106 106 2 1 8.727514 9.987456 5.39974
107 107 2 1 9.612976 8.693452 5.729345
108 108 2 1 0.8737051 9.667201 4.427393
109 109 2 1 1.960178 9.786234 5.496208
110 110 2 1 12.09132 5.246334 6.047938
111 111 2 1 11.99233 3.8669 6.796894
112 112 2 1 4.739407 11.61127 6.78552
113 113 2 1 5.004655 10.28701 7.290142
114 114 2 1 7.304726 11.46661 5.492478
115 115 2 1 8.535922 12.05749 4.960194
116 116 2 1 8.688515 5.746008 1.922331
117 117 2 1 8.895453 4.963631 3.229727
118 118 2 1 2.403513 12.35488 4.841621
119 119 2 1 3.741933 11.71195 4.29944
120 120 2 1 7.07144 8.790232 1.406652
121 121 2 1 7.541036 10.2254 1.136449
122 122 2 1 5.928231 7.424046 10.54105
123 123 2 1 6.043619 8.472959 11.61644
124 124 2 1 11.22306 9.401024 8.891293
125 125 2 1 11.26054 10.31624 10.10767
126 126 2 1 1.972437 5.30522 4.530877
127 127 2 1 2.352102 5.108059 3.09532
128 128 2 1 11.13662 3.90941 3.450439
129 129 2 1 11.44591 3.518694 4.837096
130 130 2 1 5.581736 5.691974 8.929692
131 131 2 1 6.612575 5.384645 10.04083
132 132 2 1 10.52367 6.795833 3.378483
133 133 2 1 12.11727 6.73828 3.562576
134 134 2 1 4.250377 8.37208 2.272613
135 135 2 1 3.587742 8.876539 0.9994818
136 136 2 1 0.1498319 8.256733 10.23693
137 137 2 1 1.658617 8.255933 10.74105
138 138 2 1 1.871822 5.40766 9.057374
139 139 2 1 1.53888 6.846594 8.819156
140 140 2 1 10.03426 12.41403 10.43411
141 141 2 1 8.612919 0.05580696 9.822161
142 142 2 1 1.674268 3.153555 5.420608
143 143 2 1 1.4081 1.868375 6.298564
144 144 2 1 4.038712 2.721808 9.526847
145 145 2 1 3.596858 3.117302 8.013583
146 146 2 1 8.094495 7.086776 0.01227782
147 147 2 1 8.116071 5.584425 12.22488
148 148 2 1 8.339884 0.8397606 12.16647
149 149 2 1 7.542948 1.850444 0.3729574
150 150 2 1 8.994475 9.530306 3.522903
151 151 2 1 10.04612 9.650863 2.287006
152 152 2 1 10.15155 4.433785 1.527745
153 153 2 1 11.35362 3.227426 1.073329
154 154 2 1 5.917364 6.192473 4.80722
155 155 2 1 7.23634 7.086442 5.372844
156 156 2 1 0.5238772 2.318513 2.9282
157 157 2 1 1.727181 3.168404 2.593537
158 158 2 1 8.646916 9.33847 11.84499
159 159 2 1 9.424571 8.182764 11.05138
160 160 2 1 8.65741 5.003409 6.266829
161 161 2 1 7.834108 5.814934 7.296186
162 162 2 1 6.846179 11.69758 8.790977
163 163 2 1 7.469227 12.31001 7.427853
164 164 2 1 4.865225 5.455736 6.929299
165 165 2 1 3.64653 5.548176 7.912909
166 166 2 1 7.963613 3.426621 5.009593
167 167 2 1 9.500149 3.407729 4.540107
168 168 2 1 1.872056 7.507886 2.570944
169 169 2 1 0.9682976 6.453884 1.960067
170 170 2 1 4.788047 3.439493 1.470543
171 171 2 1 4.423109 1.981355 1.230726
172 172 2 1 10.04909 1.18648 0.8829451
173 173 2 1 11.01596 0.8573952 1.968315
174 174 2 1 4.124863 4.709919 4.19827
175 175 2 1 5.436765 3.891202 4.350957
176 176 2 1 6.410083 0.2649316 2.031999
177 177 2 1 6.120865 11.95956 3.38337
178 178 2 1 4.536434 12.07978 0.894771
179 179 2 1 5.528525 10.8985 0.9511607
180 180 2 1 6.330961 6.876811 1.976493
181 181 2 1 6.098635 7.514938 3.51515
182 182 2 1 0.8231963 7.105659 5.648813
183 183 2 1 1.489506 6.19317 6.708007
184 184 2 1 0.1811104 5.381084 0.3074174
185 185 2 1 0.9530599 6.374602 11.76804
186 186 2 1 11.92911 5.919686 9.507021
187 187 2 1 11.25725 5.948147 8.20331
188 188 2 1 3.042163 5.620808 0.263426
189 189 2 1 3.937392 6.366076 1.191687
190 190 2 1 3.35214 9.836336 11.49906
191 191 2 1 3.965853 8.476432 11.20297
192 192 2 1 5.040089 0.575256 10.404
193 1 3 -8.0 6.501918 0.3462069 3.006559
194 2 3 -8.0 5.277299 11.70286 0.4800217
195 3 3 -8.0 9.086982 8.510869 11.88521
196 4 3 -8.0 5.8893 7.609736 2.444108
197 5 3 -8.0 0.9172956 6.204844 5.913576
198 6 3 -8.0 0.9379262 6.033487 0.2926221
199 7 3 -8.0 11.06102 6.015332 9.092432
200 8 3 -8.0 3.697776 5.463172 0.9379642
201 9 3 -8.0 3.104811 8.858211 11.3939
202 10 3 -8.0 5.102712 12.09019 10.30452
203 11 3 -8.0 12.30645 10.25297 7.179951
204 12 3 -8.0 11.46197 2.516035 8.499961
205 13 3 -8.0 1.488684 0.1489796 6.298539
206 14 3 -8.0 8.525468 5.933551 6.676289
207 15 3 -8.0 8.999869 4.446514 11.11264
208 16 3 -8.0 1.20106 0.8900716 11.89308
209 17 3 -8.0 3.306729 0.5633268 1.364123
210 18 3 -8.0 6.465358 9.80068 8.416606
211 19 3 -8.0 5.194492 2.520435 10.82673
212 20 3 -8.0 6.553968 2.686564 4.637989
213 21 3 -8.0 11.13973 0.05119359 5.243877
214 22 3 -8.0 2.603651 12.37658 8.845721
215 23 3 -8.0 1.215719 3.520407 9.770025
216 24 3 -8.0 11.45874 9.030302 1.682474
217 25 3 -8.0 7.485986 12.27081 8.451545
218 26 3 -8.0 10.85689 7.921632 6.451804
219 27 3 -8.0 9.193433 0.0980996 3.141667
220 28 3 -8.0 7.454047 2.51566 9.171353
221 29 3 -8.0 12.00013 12.1154 9.452725
222 30 3 -8.0 1.313268 10.55291 2.775097
223 31 3 -8.0 4.730613 1.512089 6.140988
224 32 3 -8.0 5.785586 10.19373 4.222656
225 33 3 -8.0 8.836825 9.066541 5.12498
226 34 3 -8.0 1.22261 9.237692 5.203458
227 35 3 -8.0 11.47016 4.569575 6.334662
228 36 3 -8.0 4.350823 5.074367 7.683926
229 37 3 -8.0 4.647175 10.70004 6.537544
230 38 3 -8.0 8.208631 11.60415 5.767424
231 39 3 -8.0 9.373019 5.585066 2.636236
232 40 3 -8.0 3.178716 0.03082356 4.271953
233 41 3 -8.0 6.910652 9.556989 0.7775105
234 42 3 -8.0 5.718159 8.345103 10.70856
235 43 3 -8.0 11.17963 9.383263 9.880341
236 44 3 -8.0 2.445417 4.733824 3.939966
237 45 3 -8.0 11.35472 3.089997 3.928464
238 46 3 -8.0 6.208991 6.131487 9.556965
239 47 3 -8.0 8.754644 3.931243 4.867566
240 48 3 -8.0 11.29134 7.130146 3.896224
241 49 3 -8.0 3.424567 8.776265 1.910216
242 50 3 -8.0 0.9706659 7.615978 10.37047
243 51 3 -8.0 1.981877 6.082941 8.435763
244 52 3 -8.0 9.103652 0.2348636 10.64222
245 53 3 -8.0 1.575276 2.817952 6.32908
246 54 3 -8.0 3.442484 2.489914 8.745883
247 55 3 -8.0 7.69724 6.2772 0.4005078
248 56 3 -8.0 8.04947 1.115918 0.5970098
249 57 3 -8.0 1.297404 6.741042 2.831773
250 58 3 -8.0 9.136324 10.00912 2.626338
251 59 3 -8.0 10.96452 4.177359 0.934147
252 60 3 -8.0 6.32324 7.125068 4.965249
253 61 3 -8.0 0.9827082 2.664177 2.156698
254 62 3 -8.0 5.187356 2.568551 1.126306
255 63 3 -8.0 11.01079 1.26739 1.125121
256 64 3 -8.0 5.023014 4.756367 4.493458

Bonds

1 1 1 193
2 1 2 194
3 1 3 195
4 1 4 196
5 1 5 197
6 1 6 198
7 1 7 199
8 1 8 200
9 1 9 201
10 1 10 202
11 1 11 203
12 1 12 204
13 1 13 205
14 1 14 206
15 1 15 207
16 1 16 208
17 1 17 209
18 1 18 210
19 1 19 211
20 1 20 212
21 1 21 213
22 1 22 214
23 1 23 215
24 1 24 216
25 1 25 217
26 1 26 218
27 1 27 219
28 1 28 220
29 1 29 221
30 1 30 222
31 1 31 223
32 1 32 224
33 1 33 225
34 1 34 226
35 1 35 227
36 1 36 228
37 1 37 229
38 1 38 230
39 1 39 231
40 1 40 232
41 1 41 233
42 1 42 234
43 1 43 235
44 1 44 236
45 1 45 237
46 1 46 238
47 1 47 239
48 1 48 240
49 1 49 241
50 1 50 242
51 1 51 243
52 1 52 244
53 1 53 245
54 1 54 246
55 1 55 247
56 1 56 248
57 1 57 249
58 1 58 250
59 1 59 251
60 1 60 252
61 1 61 253
62 1 62 254
63 1 63 255
64 1 64 256
