Water

384 atoms
2 atom types

0.0 15.65 xlo xhi
0.0 15.65 ylo yhi
0.0 15.65 zlo zhi

Masses

1 15.999
2  2.018

Atoms

1 1 1.99941 7.25356 7.20424
2 1 10.6531 12.6781 2.63566
3 1 -0.0369016 3.89497 13.6848
4 1 1.18908 6.1525 12.7867
5 1 11.7018 4.1042 3.48339
6 1 11.0122 15.4069 3.07435
7 1 2.72974 15.3585 13.3303
8 1 2.45334 14.246 4.48398
9 1 12.1116 15.235 10.1172
10 1 2.22775 13.7873 11.0025
11 1 15.2924 12.1939 11.0579
12 1 6.19878 4.81336 0.228
13 1 13.8383 12.5694 3.09329
14 1 8.87219 9.46036 11.3321
15 1 3.6741 5.56755 1.51509
16 1 0.788967 15.4454 6.16148
17 1 2.4081 14.2731 0.234205
18 1 15.3359 11.5914 8.25912
19 1 7.00669 7.54638 2.59779
20 1 15.3861 3.46734 9.97661
21 1 11.2199 2.92179 1.01943
22 1 9.24236 6.7285 11.3176
23 1 5.78897 4.81192 12.1998
24 1 12.7095 8.42414 8.14129
25 1 9.6915 1.24922 4.89897
26 1 13.4927 9.67597 1.88403
27 1 7.28354 2.12128 3.5908
28 1 6.10496 8.8061 0.381245
29 1 12.3762 14.8271 7.39181
30 1 13.6972 0.870193 14.2026
31 1 3.80469 4.88224 7.88596
32 1 0.444557 5.44186 3.29789
33 1 14.0611 6.43193 0.144603
34 1 6.64535 9.48287 12.678
35 1 2.53355 0.696311 8.46253
36 1 15.3444 8.59676 8.62404
37 1 7.89669 9.65189 3.71841
38 1 15.4259 4.22137 0.952304
39 1 3.85701 8.09193 11.2792
40 1 9.44934 1.93939 14.8083
41 1 8.60886 11.0381 9.2328
42 1 4.75208 7.36913 8.69142
43 1 5.19912 10.9301 10.9189
44 1 2.71984 8.74553 14.1405
45 1 11.1383 10.5295 8.82549
46 1 8.36594 4.36993 7.25191
47 1 2.48735 2.63562 14.496
48 1 9.70649 14.7328 6.61685
49 1 4.3179 11.3116 13.5501
50 1 9.69593 14.8246 11.7955
51 1 2.33788 11.4767 15.5116
52 1 3.97344 8.2362 5.61613
53 1 5.26025 14.5469 10.4193
54 1 6.6995 2.21238 11.1803
55 1 4.20854 4.02505 5.50205
56 1 4.84369 14.2236 1.44035
57 1 5.22953 14.7387 4.18414
58 1 9.47603 4.84945 4.9211
59 1 14.9991 8.23716 14.2523
60 1 12.7713 12.1281 7.38938
61 1 7.03419 5.81754 9.94797
62 1 12.0465 6.42713 12.5851
63 1 6.7872 12.0439 2.60294
64 1 13.0269 13.0858 11.5496
65 1 3.13205 2.82592 1.46035
66 1 0.887036 8.36599 11.1061
67 1 0.628855 15.0547 2.40418
68 1 13.8782 15.5523 3.14171
69 1 4.84582 6.28761 3.73666
70 1 11.5196 10.179 11.7322
71 1 3.26331 4.08673 12.2376
72 1 1.30873 12.0894 6.03026
73 1 2.00408 8.0076 0.957852
74 1 13.9604 1.97256 1.15722
75 1 4.95701 15.3468 7.90115
76 1 13.2657 12.4095 0.422561
77 1 2.83052 10.7136 9.7533
78 1 10.8169 9.02786 1.86111
79 1 10.3204 11.0312 0.33706
80 1 1.5355 3.5698 5.13538
81 1 0.319816 7.90009 4.69029
82 1 7.65858 15.0835 7.87114
83 1 14.0401 0.749184 5.86352
84 1 7.78198 12.9306 0.28601
85 1 0.560448 0.946227 13.1822
86 1 5.24424 7.22967 13.5419
87 1 14.0348 5.51456 4.97589
88 1 1.02609 2.09053 3.07713
89 1 10.6129 9.53026 4.36432
90 1 3.07856 9.52384 3.35431
91 1 7.96402 10.5212 15.0515
92 1 8.21098 4.96235 14.1273
93 1 1.05434 10.7367 13.0759
94 1 7.51809 11.2393 6.81398
95 1 8.65808 12.5304 4.81914
96 1 15.2914 3.24806 7.15687
97 1 10.8492 5.42373 14.9774
98 1 8.43613 5.37067 2.38155
99 1 0.344558 14.4899 8.83727
100 1 9.42141 7.70122 6.10705
101 1 10.6724 6.42858 8.85047
102 1 15.1005 10.5119 15.5822
103 1 9.81487 14.9215 14.4977
104 1 5.35192 1.49611 5.6371
105 1 5.52573 13.8645 14.2909
106 1 3.26523 10.8226 7.25742
107 1 0.452996 10.4755 4.08837
108 1 7.94649 13.3015 10.139
109 1 14.7905 0.840674 10.4466
110 1 12.4842 14.0971 14.1697
111 1 11.5061 2.47594 10.2025
112 1 10.8629 3.94734 8.18421
113 1 6.59173 2.41093 15.0972
114 1 6.64136 8.77065 6.24272
115 1 12.3708 2.79716 5.83191
116 1 13.0472 10.9111 4.80205
117 1 6.87969 2.20354 7.98086
118 1 9.18076 2.01074 11.9887
119 1 11.329 6.40472 1.83067
120 1 12.557 2.72349 12.6614
121 1 4.75988 10.7904 1.43975
122 1 5.67208 1.15354 1.59905
123 1 13.5219 8.07966 5.48291
124 1 13.4201 8.52307 11.8111
125 1 13.4432 5.56132 10.1239
126 1 5.54326 12.56 7.71529
127 1 2.46844 3.19227 9.77897
128 1 5.18253 1.07426 13.2427
129 2 5.15577 14.7408 14.1007
130 2 1.31702 0.379974 13.0056
131 2 5.26998 13.4579 7.9458
132 2 0.156171 10.4996 3.18003
133 2 3.24471 4.29192 8.48518
134 2 5.11591 15.1744 1.40011
135 2 7.58253 9.33174 12.3677
136 2 10.4324 10.1996 0.836982
137 2 10.4676 12.2804 1.8034
138 2 9.01706 5.26878 4.15201
139 2 12.8996 2.01786 13.1974
140 2 11.4196 14.9681 7.32448
141 2 2.37168 13.5149 5.16029
142 2 13.3064 9.93357 4.8946
143 2 15.2354 11.8923 10.1435
144 2 1.92033 5.57221 12.4277
145 2 1.26862 7.50117 7.81861
146 2 5.33685 5.18763 0.569197
147 2 12.8662 2.0176 5.52578
148 2 10.7968 14.4993 2.85606
149 2 1.34118 13.5053 10.7643
150 2 9.44144 2.36561 13.9235
151 2 11.6562 3.77171 2.5677
152 2 -0.016124 11.5033 11.6415
153 2 15.4436 3.86269 14.6564
154 2 9.70903 9.78612 11.5973
155 2 6.3387 7.18947 3.19734
156 2 1.37117 15.1214 5.47953
157 2 13.2354 6.52195 0.656367
158 2 7.00198 8.97183 5.37908
159 2 9.62558 0.972992 14.8176
160 2 3.43017 0.47517 8.12376
161 2 13.7022 12.5383 2.15947
162 2 6.36514 3.30608 15.3561
163 2 15.0657 2.5553 10.2605
164 2 2.36434 6.30404 7.45982
165 2 1.43837 0.195849 6.79935
166 2 9.81358 6.5848 10.5369
167 2 2.52942 14.8259 15.0811
168 2 12.152 7.67766 8.4
169 2 3.3581 14.2149 0.55865
170 2 7.76508 6.29283 10.4488
171 2 13.8143 13.5287 3.22196
172 2 14.8198 15.4032 3.0263
173 2 14.3873 11.8308 8.00533
174 2 11.6024 12.6048 2.70612
175 2 12.8202 5.67671 10.8769
176 2 5.55314 9.6024 0.72976
177 2 13.9034 12.6043 11.4146
178 2 12.058 2.47336 0.946293
179 2 13.8923 8.82647 2.08826
180 2 14.6558 4.08294 9.88377
181 2 11.5921 14.3575 14.359
182 2 13.2776 3.3686 12.9005
183 2 12.3884 13.8271 7.13631
184 2 9.43859 6.75296 5.85862
185 2 10.1496 0.975253 4.05912
186 2 11.0914 3.43294 9.07205
187 2 14.4036 5.59038 0.445325
188 2 14.1121 10.0341 1.1647
189 2 6.47577 8.78386 13.2924
190 2 1.025 4.78302 3.79608
191 2 11.4309 1.55779 10.0291
192 2 3.03551 3.76046 11.3613
193 2 3.97954 5.50116 2.43563
194 2 2.92683 3.16003 13.7643
195 2 5.89046 5.53752 12.8412
196 2 0.908986 15.2729 1.45356
197 2 10.3574 1.91592 5.22768
198 2 14.4883 0.731957 13.7161
199 2 6.35188 8.3704 1.26562
200 2 15.377 9.49507 8.34291
201 2 8.78748 9.86186 4.10498
202 2 12.2508 14.974 9.20452
203 2 0.0720166 4.57453 1.82936
204 2 8.3468 11.9205 9.55237
205 2 10.6878 9.17536 2.83088
206 2 8.12565 10.9732 8.35812
207 2 11.0018 4.50568 15.2226
208 2 0.838915 6.3103 3.51263
209 2 2.50771 8.3465 15.0516
210 2 1.72497 2.28369 2.38684
211 2 10.7094 2.63266 0.282113
212 2 2.17865 9.83734 3.65719
213 2 5.4433 14.6857 11.3441
214 2 1.89111 1.93698 14.139
215 2 0.13323 7.7101 13.9938
216 2 15.0749 3.34519 1.16293
217 2 10.2317 10.7875 8.88119
218 2 4.84475 8.53019 5.94974
219 2 8.5211 4.26531 6.2967
220 2 7.38688 8.42385 2.9976
221 2 2.86448 8.09177 11.1692
222 2 3.26141 4.69736 1.36652
223 2 4.93416 11.4243 12.7356
224 2 4.37194 6.5011 8.36651
225 2 5.70502 7.14125 8.8735
226 2 0.256458 11.8284 7.51527
227 2 11.2517 10.3941 9.78327
228 2 5.30366 14.0025 4.82569
229 2 5.78837 11.5607 10.4619
230 2 12.306 9.55581 11.7161
231 2 9.18412 14.4993 15.0695
232 2 2.78332 11.4156 14.665
233 2 3.41414 14.5276 4.39591
234 2 2.23587 12.4751 -0.00822237
235 2 9.58445 0.105724 11.6541
236 2 5.929 11.6729 2.23319
237 2 6.38387 2.3124 10.2015
238 2 7.9971 14.0242 9.44155
239 2 3.45417 8.01454 6.39374
240 2 2.3536 15.7483 9.16927
241 2 9.79688 15.4172 5.88118
242 2 3.3091 3.91529 5.28427
243 2 10.5973 14.6283 11.5966
244 2 6.13538 14.0727 10.2075
245 2 10.2421 4.49631 4.43338
246 2 9.22885 7.73154 11.2556
247 2 12.122 11.5635 7.91316
248 2 7.54465 2.91345 7.78177
249 2 3.36182 0.397081 13.3033
250 2 3.92336 2.3367 1.56941
251 2 13.0055 7.74188 12.1961
252 2 15.1376 9.69984 15.0152
253 2 5.31965 14.5695 3.24531
254 2 2.38769 8.08679 13.5233
255 2 14.0069 11.8587 0.0571089
256 2 0.256486 8.38227 10.3727
257 2 0.510084 14.8355 7.94103
258 2 3.06646 10.5445 8.18616
259 2 6.36545 5.31252 15.0961
260 2 0.710837 7.48981 11.5077
261 2 11.1937 6.92071 12.5118
262 2 7.40902 5.03448 9.55993
263 2 9.92024 2.34742 11.4195
264 2 2.82135 2.72044 0.554323
265 2 0.995326 9.838 13.3925
266 2 2.11225 11.5921 6.42944
267 2 5.80983 10.3269 11.4607
268 2 10.5783 5.86786 2.04287
269 2 7.17784 12.4827 1.82482
270 2 12.8338 13.1092 12.5481
271 2 2.52103 7.24244 1.11459
272 2 6.66735 3.04798 11.626
273 2 4.2207 6.86961 4.1622
274 2 0.989329 11.4522 5.30291
275 2 2.70986 12.9839 10.8208
276 2 14.1678 1.25983 1.7928
277 2 5.83243 15.6136 7.55426
278 2 1.49996 14.8355 2.79828
279 2 9.30813 4.3926 7.56939
280 2 5.099 7.75515 14.2915
281 2 4.20512 7.84965 10.3481
282 2 5.04218 15.2849 8.85458
283 2 8.08878 1.68488 3.98959
284 2 4.08598 10.3564 13.4267
285 2 13.8305 0.691707 10.5021
286 2 4.18022 4.43635 12.1026
287 2 2.20047 8.46765 1.79712
288 2 5.1539 5.60234 4.35281
289 2 13.7479 0.272274 4.0664
290 2 11.9942 11.0267 11.8928
291 2 1.30247 2.82313 4.57246
292 2 4.75843 12.0151 7.57541
293 2 8.46665 15.1523 7.29335
294 2 6.82891 11.9316 6.87048
295 2 2.22365 10.0422 10.0956
296 2 14.9885 0.558254 5.87492
297 2 5.31205 13.7177 0.715953
298 2 11.9816 2.56892 11.0247
299 2 15.0487 7.79251 4.96916
300 2 14.8273 5.61985 4.35126
301 2 11.2745 10.1053 4.69647
302 2 0.396101 1.31152 12.3541
303 2 8.37572 5.18292 13.1938
304 2 14.3254 5.09548 5.82967
305 2 0.76905 7.60055 5.58387
306 2 7.60189 10.5147 3.30526
307 2 12.1772 9.26262 8.30247
308 2 7.52048 0.322841 8.19605
309 2 7.27102 13.2604 15.1504
310 2 13.9263 1.61386 0.24342
311 2 14.3864 8.38948 8.50527
312 2 1.91071 10.725 12.6513
313 2 4.49407 3.1028 5.37952
314 2 9.58088 10.8699 15.4501
315 2 8.12171 11.444 6.10779
316 2 15.5593 3.10001 8.09046
317 2 1.08986 3.54344 6.01426
318 2 14.6658 7.59607 14.8645
319 2 6.04955 5.24701 11.3699
320 2 14.6695 2.56455 6.88537
321 2 8.14291 12.0597 0.00304865
322 2 2.98073 14.6899 12.6838
323 2 7.48521 2.15485 14.8821
324 2 7.34935 9.83984 -0.156898
325 2 3.52314 10.7007 10.4188
326 2 12.4911 3.34749 5.05118
327 2 4.69129 7.61887 12.8399
328 2 7.68827 4.90715 1.78444
329 2 4.02239 4.45552 6.99721
330 2 10.3837 8.87385 5.01014
331 2 9.04331 5.19589 14.5811
332 2 8.50064 7.85574 6.45076
333 2 11.0586 5.91327 0.0948578
334 2 13.1766 15.7176 14.1721
335 2 9.56905 14.8212 13.5502
336 2 4.90847 13.1003 14.1311
337 2 4.97913 0.607618 5.42036
338 2 0.361326 9.52705 4.37582
339 2 9.57096 13.884 6.135
340 2 8.10614 6.31604 2.42386
341 2 3.48572 10.0007 6.7402
342 2 13.5186 7.14736 5.24469
343 2 6.29596 1.32407 2.34828
344 2 13.5381 11.41 4.07515
345 2 7.62559 3.00511 3.30004
346 2 15.3285 13.7837 8.69641
347 2 0.328418 10.956 15.5241
348 2 12.372 14.4358 10.6052
349 2 8.44172 13.7103 10.9046
350 2 6.09968 1.61485 5.05428
351 2 12.9238 13.6682 14.8665
352 2 4.1219 10.3925 2.06834
353 2 8.67192 9.92881 10.4361
354 2 11.0686 5.57013 8.52698
355 2 11.4575 3.52593 7.58875
356 2 12.6429 4.31948 3.5772
357 2 0.693602 5.45402 13.2351
358 2 11.7374 9.32111 1.78984
359 2 13.2321 8.10086 6.40605
360 2 2.62995 2.29725 9.39783
361 2 6.68529 9.61522 6.73069
362 2 0.68971 3.18772 13.7137
363 2 11.9834 15.3711 2.89602
364 2 5.26569 1.59976 12.4526
365 2 7.87021 12.6354 4.2257
366 2 13.9093 6.38152 10.1224
367 2 10.1863 6.62311 8.01519
368 2 11.0422 7.36343 1.98843
369 2 9.31723 12.4575 4.06833
370 2 13.6157 15.7758 6.47293
371 2 12.4373 11.8996 0.146264
372 2 5.68369 1.57556 13.9615
373 2 6.13089 2.15391 7.35639
374 2 3.54122 9.35488 4.21916
375 2 12.9626 11.588 6.4914
376 2 8.35148 2.13712 11.4445
377 2 0.982355 1.11151 2.93142
378 2 11.939 5.91077 13.36
379 2 7.57735 10.7752 14.217
380 2 6.29499 1.39172 0.864555
381 2 1.49659 3.25687 9.88888
382 2 4.03599 11.1335 0.878345
383 2 14.1067 8.69915 12.4399
384 2 15.1697 0.092451 9.98994
