Water

1536 atoms
2 atom types

0.0 24.90 xlo xhi
0.0 24.90 ylo yhi
0.0 24.90 zlo zhi

Masses

1 15.999
2  2.018


Atoms

    1  1   9.37302000   5.58507000   2.63624000
    2  1   9.37302000   5.58507000  15.08620000
    3  1   9.37302000  18.03510000   2.63624000
    4  1   9.37302000  18.03510000  15.08620000
    5  1   9.19343000  12.54810000   3.14167000
    6  1   9.19343000  12.54810000  15.59170000
    7  1   9.19343000   0.09809960   3.14167000
    8  1   9.19343000   0.09809960  15.59170000
    9  1   9.13632000  22.45910000   2.62634000
   10  1   9.13632000  22.45910000  15.07630000
   11  1   9.13632000  10.00910000   2.62634000
   12  1   9.13632000  10.00910000  15.07630000
   13  1   9.10365000  12.68490000  23.09220000
   14  1   9.10365000  12.68490000  10.64220000
   15  1   9.10365000   0.23486400  23.09220000
   16  1   9.10365000   0.23486400  10.64220000
   17  1   9.08698000   8.51087000  24.33520000
   18  1   9.08698000   8.51087000  11.88520000
   19  1   9.08698000  20.96090000  24.33520000
   20  1   9.08698000  20.96090000  11.88520000
   21  1   8.99987000   4.44651000  23.56260000
   22  1   8.99987000   4.44651000  11.11260000
   23  1   8.99987000  16.89650000  23.56260000
   24  1   8.99987000  16.89650000  11.11260000
   25  1   8.83682000   9.06654000   5.12498000
   26  1   8.83682000   9.06654000  17.57500000
   27  1   8.83682000  21.51650000   5.12498000
   28  1   8.83682000  21.51650000  17.57500000
   29  1   8.75464000   3.93124000   4.86757000
   30  1   8.75464000   3.93124000  17.31760000
   31  1   8.75464000  16.38120000   4.86757000
   32  1   8.75464000  16.38120000  17.31760000
   33  1   8.52547000   5.93355000   6.67629000
   34  1   8.52547000   5.93355000  19.12630000
   35  1   8.52547000  18.38360000   6.67629000
   36  1   8.52547000  18.38360000  19.12630000
   37  1   8.20863000  24.05410000   5.76742000
   38  1   8.20863000  24.05410000  18.21740000
   39  1   8.20863000  11.60420000   5.76742000
   40  1   8.20863000  11.60420000  18.21740000
   41  1   8.04947000  13.56590000  13.04700000
   42  1   8.04947000  13.56590000   0.59701000
   43  1   8.04947000   1.11592000  13.04700000
   44  1   8.04947000   1.11592000   0.59701000
   45  1   7.69724000   6.27720000  12.85050000
   46  1   7.69724000   6.27720000   0.40050800
   47  1   7.69724000  18.72720000  12.85050000
   48  1   7.69724000  18.72720000   0.40050800
   49  1   7.48599000  24.72080000   8.45154000
   50  1   7.48599000  24.72080000  20.90150000
   51  1   7.48599000  12.27080000   8.45154000
   52  1   7.48599000  12.27080000  20.90150000
   53  1   7.45405000   2.51566000   9.17135000
   54  1   7.45405000   2.51566000  21.62140000
   55  1   7.45405000  14.96570000   9.17135000
   56  1   7.45405000  14.96570000  21.62140000
   57  1   6.91065000   9.55699000  13.22750000
   58  1   6.91065000   9.55699000   0.77751000
   59  1   6.91065000  22.00700000  13.22750000
   60  1   6.91065000  22.00700000   0.77751000
   61  1   6.55397000   2.68656000   4.63799000
   62  1   6.55397000   2.68656000  17.08800000
   63  1   6.55397000  15.13660000   4.63799000
   64  1   6.55397000  15.13660000  17.08800000
   65  1   6.50192000  12.79620000   3.00656000
   66  1   6.50192000  12.79620000  15.45660000
   67  1   6.50192000   0.34620700   3.00656000
   68  1   6.50192000   0.34620700  15.45660000
   69  1   6.46536000   9.80068000   8.41661000
   70  1   6.46536000   9.80068000  20.86660000
   71  1   6.46536000  22.25070000   8.41661000
   72  1   6.46536000  22.25070000  20.86660000
   73  1   6.32324000   7.12507000   4.96525000
   74  1   6.32324000   7.12507000  17.41520000
   75  1   6.32324000  19.57510000   4.96525000
   76  1   6.32324000  19.57510000  17.41520000
   77  1   6.20899000   6.13149000   9.55696000
   78  1   6.20899000   6.13149000  22.00700000
   79  1   6.20899000  18.58150000   9.55696000
   80  1   6.20899000  18.58150000  22.00700000
   81  1   5.88930000   7.60974000   2.44411000
   82  1   5.88930000   7.60974000  14.89410000
   83  1   5.88930000  20.05970000   2.44411000
   84  1   5.88930000  20.05970000  14.89410000
   85  1   5.78559000  22.64370000   4.22266000
   86  1   5.78559000  22.64370000  16.67270000
   87  1   5.78559000  10.19370000   4.22266000
   88  1   5.78559000  10.19370000  16.67270000
   89  1   5.71816000   8.34510000  23.15860000
   90  1   5.71816000   8.34510000  10.70860000
   91  1   5.71816000  20.79510000  23.15860000
   92  1   5.71816000  20.79510000  10.70860000
   93  1   5.27730000  24.15290000  12.93000000
   94  1   5.27730000  24.15290000   0.48002200
   95  1   5.27730000  11.70290000  12.93000000
   96  1   5.27730000  11.70290000   0.48002200
   97  1   5.19449000   2.52043000  23.27670000
   98  1   5.19449000   2.52043000  10.82670000
   99  1   5.19449000  14.97040000  23.27670000
  100  1   5.19449000  14.97040000  10.82670000
  101  1   5.18736000   2.56855000  13.57630000
  102  1   5.18736000   2.56855000   1.12631000
  103  1   5.18736000  15.01860000  13.57630000
  104  1   5.18736000  15.01860000   1.12631000
  105  1   5.10271000  24.54020000  22.75450000
  106  1   5.10271000  24.54020000  10.30450000
  107  1   5.10271000  12.09020000  22.75450000
  108  1   5.10271000  12.09020000  10.30450000
  109  1   5.02301000   4.75637000   4.49346000
  110  1   5.02301000   4.75637000  16.94350000
  111  1   5.02301000  17.20640000   4.49346000
  112  1   5.02301000  17.20640000  16.94350000
  113  1   4.73061000   1.51209000   6.14099000
  114  1   4.73061000   1.51209000  18.59100000
  115  1   4.73061000  13.96210000   6.14099000
  116  1   4.73061000  13.96210000  18.59100000
  117  1   4.64717000  23.15000000   6.53754000
  118  1   4.64717000  23.15000000  18.98750000
  119  1   4.64717000  10.70000000   6.53754000
  120  1   4.64717000  10.70000000  18.98750000
  121  1   4.35082000   5.07437000   7.68393000
  122  1   4.35082000   5.07437000  20.13390000
  123  1   4.35082000  17.52440000   7.68393000
  124  1   4.35082000  17.52440000  20.13390000
  125  1   3.69778000   5.46317000  13.38800000
  126  1   3.69778000   5.46317000   0.93796400
  127  1   3.69778000  17.91320000  13.38800000
  128  1   3.69778000  17.91320000   0.93796400
  129  1   3.44248000   2.48991000   8.74588000
  130  1   3.44248000   2.48991000  21.19590000
  131  1   3.44248000  14.93990000   8.74588000
  132  1   3.44248000  14.93990000  21.19590000
  133  1   3.42457000   8.77627000   1.91022000
  134  1   3.42457000   8.77627000  14.36020000
  135  1   3.42457000  21.22630000   1.91022000
  136  1   3.42457000  21.22630000  14.36020000
  137  1   3.30673000  13.01330000  13.81410000
  138  1   3.30673000  13.01330000   1.36412000
  139  1   3.30673000   0.56332700  13.81410000
  140  1   3.30673000   0.56332700   1.36412000
  141  1   3.17872000  12.48080000   4.27195000
  142  1   3.17872000  12.48080000  16.72200000
  143  1   3.17872000   0.03082360   4.27195000
  144  1   3.17872000   0.03082360  16.72200000
  145  1   3.10481000   8.85821000  23.84390000
  146  1   3.10481000   8.85821000  11.39390000
  147  1   3.10481000  21.30820000  23.84390000
  148  1   3.10481000  21.30820000  11.39390000
  149  1   2.60365000  24.82660000   8.84572000
  150  1   2.60365000  24.82660000  21.29570000
  151  1   2.60365000  12.37660000   8.84572000
  152  1   2.60365000  12.37660000  21.29570000
  153  1  24.75650000  22.70300000   7.17995000
  154  1  24.75650000  22.70300000  19.63000000
  155  1  24.75650000  10.25300000   7.17995000
  156  1  24.75650000  10.25300000  19.63000000
  157  1   2.44542000   4.73382000   3.93997000
  158  1   2.44542000   4.73382000  16.39000000
  159  1   2.44542000  17.18380000   3.93997000
  160  1   2.44542000  17.18380000  16.39000000
  161  1  24.45010000  24.56540000   9.45272000
  162  1  24.45010000  24.56540000  21.90270000
  163  1  24.45010000  12.11540000   9.45272000
  164  1  24.45010000  12.11540000  21.90270000
  165  1  23.92020000   4.56958000   6.33466000
  166  1  23.92020000   4.56958000  18.78470000
  167  1  23.92020000  17.01960000   6.33466000
  168  1  23.92020000  17.01960000  18.78470000
  169  1  23.91200000   2.51604000   8.49996000
  170  1  23.91200000   2.51604000  20.95000000
  171  1  23.91200000  14.96600000   8.49996000
  172  1  23.91200000  14.96600000  20.95000000
  173  1  23.90870000   9.03030000   1.68247000
  174  1  23.90870000   9.03030000  14.13250000
  175  1  23.90870000  21.48030000   1.68247000
  176  1  23.90870000  21.48030000  14.13250000
  177  1  23.80470000   3.09000000   3.92846000
  178  1  23.80470000   3.09000000  16.37850000
  179  1  23.80470000  15.54000000   3.92846000
  180  1  23.80470000  15.54000000  16.37850000
  181  1  23.74130000   7.13015000   3.89622000
  182  1  23.74130000   7.13015000  16.34620000
  183  1  23.74130000  19.58010000   3.89622000
  184  1  23.74130000  19.58010000  16.34620000
  185  1  23.62960000   9.38326000   9.88034000
  186  1  23.62960000   9.38326000  22.33030000
  187  1  23.62960000  21.83330000   9.88034000
  188  1  23.62960000  21.83330000  22.33030000
  189  1  23.58970000  12.50120000   5.24388000
  190  1  23.58970000  12.50120000  17.69390000
  191  1  23.58970000   0.05119360   5.24388000
  192  1  23.58970000   0.05119360  17.69390000
  193  1  23.51100000   6.01533000   9.09243000
  194  1  23.51100000   6.01533000  21.54240000
  195  1  23.51100000  18.46530000   9.09243000
  196  1  23.51100000  18.46530000  21.54240000
  197  1  23.46080000  13.71740000  13.57510000
  198  1  23.46080000  13.71740000   1.12512000
  199  1  23.46080000   1.26739000  13.57510000
  200  1  23.46080000   1.26739000   1.12512000
  201  1  23.41450000   4.17736000  13.38410000
  202  1  23.41450000   4.17736000   0.93414700
  203  1  23.41450000  16.62740000  13.38410000
  204  1  23.41450000  16.62740000   0.93414700
  205  1  23.30690000   7.92163000   6.45180000
  206  1  23.30690000   7.92163000  18.90180000
  207  1  23.30690000  20.37160000   6.45180000
  208  1  23.30690000  20.37160000  18.90180000
  209  1  21.82300000   5.58507000   2.63624000
  210  1  21.82300000   5.58507000  15.08620000
  211  1  21.82300000  18.03510000   2.63624000
  212  1  21.82300000  18.03510000  15.08620000
  213  1  21.64340000  12.54810000   3.14167000
  214  1  21.64340000  12.54810000  15.59170000
  215  1  21.64340000   0.09809960   3.14167000
  216  1  21.64340000   0.09809960  15.59170000
  217  1  21.58630000  22.45910000   2.62634000
  218  1  21.58630000  22.45910000  15.07630000
  219  1  21.58630000  10.00910000   2.62634000
  220  1  21.58630000  10.00910000  15.07630000
  221  1  21.55370000  12.68490000  23.09220000
  222  1  21.55370000  12.68490000  10.64220000
  223  1  21.55370000   0.23486400  23.09220000
  224  1  21.55370000   0.23486400  10.64220000
  225  1  21.53700000   8.51087000  24.33520000
  226  1  21.53700000   8.51087000  11.88520000
  227  1  21.53700000  20.96090000  24.33520000
  228  1  21.53700000  20.96090000  11.88520000
  229  1  21.44990000   4.44651000  23.56260000
  230  1  21.44990000   4.44651000  11.11260000
  231  1  21.44990000  16.89650000  23.56260000
  232  1  21.44990000  16.89650000  11.11260000
  233  1  21.28680000   9.06654000   5.12498000
  234  1  21.28680000   9.06654000  17.57500000
  235  1  21.28680000  21.51650000   5.12498000
  236  1  21.28680000  21.51650000  17.57500000
  237  1  21.20460000   3.93124000   4.86757000
  238  1  21.20460000   3.93124000  17.31760000
  239  1  21.20460000  16.38120000   4.86757000
  240  1  21.20460000  16.38120000  17.31760000
  241  1  20.97550000   5.93355000   6.67629000
  242  1  20.97550000   5.93355000  19.12630000
  243  1  20.97550000  18.38360000   6.67629000
  244  1  20.97550000  18.38360000  19.12630000
  245  1  20.65860000  24.05410000   5.76742000
  246  1  20.65860000  24.05410000  18.21740000
  247  1  20.65860000  11.60420000   5.76742000
  248  1  20.65860000  11.60420000  18.21740000
  249  1  20.49950000  13.56590000  13.04700000
  250  1  20.49950000  13.56590000   0.59701000
  251  1  20.49950000   1.11592000  13.04700000
  252  1  20.49950000   1.11592000   0.59701000
  253  1  20.14720000   6.27720000  12.85050000
  254  1  20.14720000   6.27720000   0.40050800
  255  1  20.14720000  18.72720000  12.85050000
  256  1  20.14720000  18.72720000   0.40050800
  257  1  19.93600000  24.72080000   8.45154000
  258  1  19.93600000  24.72080000  20.90150000
  259  1  19.93600000  12.27080000   8.45154000
  260  1  19.93600000  12.27080000  20.90150000
  261  1  19.90400000   2.51566000   9.17135000
  262  1  19.90400000   2.51566000  21.62140000
  263  1  19.90400000  14.96570000   9.17135000
  264  1  19.90400000  14.96570000  21.62140000
  265  1   1.98188000   6.08294000   8.43576000
  266  1   1.98188000   6.08294000  20.88580000
  267  1   1.98188000  18.53290000   8.43576000
  268  1   1.98188000  18.53290000  20.88580000
  269  1  19.36070000   9.55699000  13.22750000
  270  1  19.36070000   9.55699000   0.77751000
  271  1  19.36070000  22.00700000  13.22750000
  272  1  19.36070000  22.00700000   0.77751000
  273  1  19.00400000   2.68656000   4.63799000
  274  1  19.00400000   2.68656000  17.08800000
  275  1  19.00400000  15.13660000   4.63799000
  276  1  19.00400000  15.13660000  17.08800000
  277  1  18.95190000  12.79620000   3.00656000
  278  1  18.95190000  12.79620000  15.45660000
  279  1  18.95190000   0.34620700   3.00656000
  280  1  18.95190000   0.34620700  15.45660000
  281  1  18.91540000   9.80068000   8.41661000
  282  1  18.91540000   9.80068000  20.86660000
  283  1  18.91540000  22.25070000   8.41661000
  284  1  18.91540000  22.25070000  20.86660000
  285  1  18.77320000   7.12507000   4.96525000
  286  1  18.77320000   7.12507000  17.41520000
  287  1  18.77320000  19.57510000   4.96525000
  288  1  18.77320000  19.57510000  17.41520000
  289  1  18.65900000   6.13149000   9.55696000
  290  1  18.65900000   6.13149000  22.00700000
  291  1  18.65900000  18.58150000   9.55696000
  292  1  18.65900000  18.58150000  22.00700000
  293  1  18.33930000   7.60974000   2.44411000
  294  1  18.33930000   7.60974000  14.89410000
  295  1  18.33930000  20.05970000   2.44411000
  296  1  18.33930000  20.05970000  14.89410000
  297  1  18.23560000  22.64370000   4.22266000
  298  1  18.23560000  22.64370000  16.67270000
  299  1  18.23560000  10.19370000   4.22266000
  300  1  18.23560000  10.19370000  16.67270000
  301  1  18.16820000   8.34510000  23.15860000
  302  1  18.16820000   8.34510000  10.70860000
  303  1  18.16820000  20.79510000  23.15860000
  304  1  18.16820000  20.79510000  10.70860000
  305  1  17.72730000  24.15290000  12.93000000
  306  1  17.72730000  24.15290000   0.48002200
  307  1  17.72730000  11.70290000  12.93000000
  308  1  17.72730000  11.70290000   0.48002200
  309  1  17.64450000   2.52043000  23.27670000
  310  1  17.64450000   2.52043000  10.82670000
  311  1  17.64450000  14.97040000  23.27670000
  312  1  17.64450000  14.97040000  10.82670000
  313  1  17.63740000   2.56855000  13.57630000
  314  1  17.63740000   2.56855000   1.12631000
  315  1  17.63740000  15.01860000  13.57630000
  316  1  17.63740000  15.01860000   1.12631000
  317  1  17.55270000  24.54020000  22.75450000
  318  1  17.55270000  24.54020000  10.30450000
  319  1  17.55270000  12.09020000  22.75450000
  320  1  17.55270000  12.09020000  10.30450000
  321  1  17.47300000   4.75637000   4.49346000
  322  1  17.47300000   4.75637000  16.94350000
  323  1  17.47300000  17.20640000   4.49346000
  324  1  17.47300000  17.20640000  16.94350000
  325  1  17.18060000   1.51209000   6.14099000
  326  1  17.18060000   1.51209000  18.59100000
  327  1  17.18060000  13.96210000   6.14099000
  328  1  17.18060000  13.96210000  18.59100000
  329  1  17.09720000  23.15000000   6.53754000
  330  1  17.09720000  23.15000000  18.98750000
  331  1  17.09720000  10.70000000   6.53754000
  332  1  17.09720000  10.70000000  18.98750000
  333  1  16.80080000   5.07437000   7.68393000
  334  1  16.80080000   5.07437000  20.13390000
  335  1  16.80080000  17.52440000   7.68393000
  336  1  16.80080000  17.52440000  20.13390000
  337  1  16.14780000   5.46317000  13.38800000
  338  1  16.14780000   5.46317000   0.93796400
  339  1  16.14780000  17.91320000  13.38800000
  340  1  16.14780000  17.91320000   0.93796400
  341  1  15.89250000   2.48991000   8.74588000
  342  1  15.89250000   2.48991000  21.19590000
  343  1  15.89250000  14.93990000   8.74588000
  344  1  15.89250000  14.93990000  21.19590000
  345  1  15.87460000   8.77627000   1.91022000
  346  1  15.87460000   8.77627000  14.36020000
  347  1  15.87460000  21.22630000   1.91022000
  348  1  15.87460000  21.22630000  14.36020000
  349  1  15.75670000  13.01330000  13.81410000
  350  1  15.75670000  13.01330000   1.36412000
  351  1  15.75670000   0.56332700  13.81410000
  352  1  15.75670000   0.56332700   1.36412000
  353  1   1.57528000   2.81795000   6.32908000
  354  1   1.57528000   2.81795000  18.77910000
  355  1   1.57528000  15.26800000   6.32908000
  356  1   1.57528000  15.26800000  18.77910000
  357  1  15.62870000  12.48080000   4.27195000
  358  1  15.62870000  12.48080000  16.72200000
  359  1  15.62870000   0.03082360   4.27195000
  360  1  15.62870000   0.03082360  16.72200000
  361  1  15.55480000   8.85821000  23.84390000
  362  1  15.55480000   8.85821000  11.39390000
  363  1  15.55480000  21.30820000  23.84390000
  364  1  15.55480000  21.30820000  11.39390000
  365  1  15.05370000  24.82660000   8.84572000
  366  1  15.05370000  24.82660000  21.29570000
  367  1  15.05370000  12.37660000   8.84572000
  368  1  15.05370000  12.37660000  21.29570000
  369  1  14.89540000   4.73382000   3.93997000
  370  1  14.89540000   4.73382000  16.39000000
  371  1  14.89540000  17.18380000   3.93997000
  372  1  14.89540000  17.18380000  16.39000000
  373  1   1.48868000  12.59900000   6.29854000
  374  1   1.48868000  12.59900000  18.74850000
  375  1   1.48868000   0.14898000   6.29854000
  376  1   1.48868000   0.14898000  18.74850000
  377  1  14.43190000   6.08294000   8.43576000
  378  1  14.43190000   6.08294000  20.88580000
  379  1  14.43190000  18.53290000   8.43576000
  380  1  14.43190000  18.53290000  20.88580000
  381  1  14.02530000   2.81795000   6.32908000
  382  1  14.02530000   2.81795000  18.77910000
  383  1  14.02530000  15.26800000   6.32908000
  384  1  14.02530000  15.26800000  18.77910000
  385  1  13.93870000  12.59900000   6.29854000
  386  1  13.93870000  12.59900000  18.74850000
  387  1  13.93870000   0.14898000   6.29854000
  388  1  13.93870000   0.14898000  18.74850000
  389  1  13.76330000  23.00290000   2.77510000
  390  1  13.76330000  23.00290000  15.22510000
  391  1  13.76330000  10.55290000   2.77510000
  392  1  13.76330000  10.55290000  15.22510000
  393  1  13.74740000   6.74104000   2.83177000
  394  1  13.74740000   6.74104000  15.28180000
  395  1  13.74740000  19.19100000   2.83177000
  396  1  13.74740000  19.19100000  15.28180000
  397  1  13.67260000   9.23769000   5.20346000
  398  1  13.67260000   9.23769000  17.65350000
  399  1  13.67260000  21.68770000   5.20346000
  400  1  13.67260000  21.68770000  17.65350000
  401  1  13.66570000   3.52041000   9.77003000
  402  1  13.66570000   3.52041000  22.22000000
  403  1  13.66570000  15.97040000   9.77003000
  404  1  13.66570000  15.97040000  22.22000000
  405  1  13.65110000  13.34010000  24.34310000
  406  1  13.65110000  13.34010000  11.89310000
  407  1  13.65110000   0.89007200  24.34310000
  408  1  13.65110000   0.89007200  11.89310000
  409  1  13.43270000   2.66418000   2.15670000
  410  1  13.43270000   2.66418000  14.60670000
  411  1  13.43270000  15.11420000   2.15670000
  412  1  13.43270000  15.11420000  14.60670000
  413  1  13.42070000   7.61598000  22.82050000
  414  1  13.42070000   7.61598000  10.37050000
  415  1  13.42070000  20.06600000  22.82050000
  416  1  13.42070000  20.06600000  10.37050000
  417  1  13.38790000   6.03349000  12.74260000
  418  1  13.38790000   6.03349000   0.29262200
  419  1  13.38790000  18.48350000  12.74260000
  420  1  13.38790000  18.48350000   0.29262200
  421  1  13.36730000   6.20484000   5.91358000
  422  1  13.36730000   6.20484000  18.36360000
  423  1  13.36730000  18.65480000   5.91358000
  424  1  13.36730000  18.65480000  18.36360000
  425  1   1.31327000  23.00290000   2.77510000
  426  1   1.31327000  23.00290000  15.22510000
  427  1   1.31327000  10.55290000   2.77510000
  428  1   1.31327000  10.55290000  15.22510000
  429  1   1.29740000   6.74104000   2.83177000
  430  1   1.29740000   6.74104000  15.28180000
  431  1   1.29740000  19.19100000   2.83177000
  432  1   1.29740000  19.19100000  15.28180000
  433  1  12.30640000  22.70300000   7.17995000
  434  1  12.30640000  22.70300000  19.63000000
  435  1  12.30640000  10.25300000   7.17995000
  436  1  12.30640000  10.25300000  19.63000000
  437  1   1.22261000   9.23769000   5.20346000
  438  1   1.22261000   9.23769000  17.65350000
  439  1   1.22261000  21.68770000   5.20346000
  440  1   1.22261000  21.68770000  17.65350000
  441  1   1.21572000   3.52041000   9.77003000
  442  1   1.21572000   3.52041000  22.22000000
  443  1   1.21572000  15.97040000   9.77003000
  444  1   1.21572000  15.97040000  22.22000000
  445  1   1.20106000  13.34010000  24.34310000
  446  1   1.20106000  13.34010000  11.89310000
  447  1   1.20106000   0.89007200  24.34310000
  448  1   1.20106000   0.89007200  11.89310000
  449  1  12.00010000  24.56540000   9.45272000
  450  1  12.00010000  24.56540000  21.90270000
  451  1  12.00010000  12.11540000   9.45272000
  452  1  12.00010000  12.11540000  21.90270000
  453  1  11.47020000   4.56958000   6.33466000
  454  1  11.47020000   4.56958000  18.78470000
  455  1  11.47020000  17.01960000   6.33466000
  456  1  11.47020000  17.01960000  18.78470000
  457  1  11.46200000   2.51604000   8.49996000
  458  1  11.46200000   2.51604000  20.95000000
  459  1  11.46200000  14.96600000   8.49996000
  460  1  11.46200000  14.96600000  20.95000000
  461  1  11.45870000   9.03030000   1.68247000
  462  1  11.45870000   9.03030000  14.13250000
  463  1  11.45870000  21.48030000   1.68247000
  464  1  11.45870000  21.48030000  14.13250000
  465  1  11.35470000   3.09000000   3.92846000
  466  1  11.35470000   3.09000000  16.37850000
  467  1  11.35470000  15.54000000   3.92846000
  468  1  11.35470000  15.54000000  16.37850000
  469  1  11.29130000   7.13015000   3.89622000
  470  1  11.29130000   7.13015000  16.34620000
  471  1  11.29130000  19.58010000   3.89622000
  472  1  11.29130000  19.58010000  16.34620000
  473  1  11.17960000   9.38326000   9.88034000
  474  1  11.17960000   9.38326000  22.33030000
  475  1  11.17960000  21.83330000   9.88034000
  476  1  11.17960000  21.83330000  22.33030000
  477  1  11.13970000  12.50120000   5.24388000
  478  1  11.13970000  12.50120000  17.69390000
  479  1  11.13970000   0.05119360   5.24388000
  480  1  11.13970000   0.05119360  17.69390000
  481  1  11.06100000   6.01533000   9.09243000
  482  1  11.06100000   6.01533000  21.54240000
  483  1  11.06100000  18.46530000   9.09243000
  484  1  11.06100000  18.46530000  21.54240000
  485  1  11.01080000  13.71740000  13.57510000
  486  1  11.01080000  13.71740000   1.12512000
  487  1  11.01080000   1.26739000  13.57510000
  488  1  11.01080000   1.26739000   1.12512000
  489  1  10.96450000   4.17736000  13.38410000
  490  1  10.96450000   4.17736000   0.93414700
  491  1  10.96450000  16.62740000  13.38410000
  492  1  10.96450000  16.62740000   0.93414700
  493  1  10.85690000   7.92163000   6.45180000
  494  1  10.85690000   7.92163000  18.90180000
  495  1  10.85690000  20.37160000   6.45180000
  496  1  10.85690000  20.37160000  18.90180000
  497  1   0.98270800   2.66418000   2.15670000
  498  1   0.98270800   2.66418000  14.60670000
  499  1   0.98270800  15.11420000   2.15670000
  500  1   0.98270800  15.11420000  14.60670000
  501  1   0.97066600   7.61598000  22.82050000
  502  1   0.97066600   7.61598000  10.37050000
  503  1   0.97066600  20.06600000  22.82050000
  504  1   0.97066600  20.06600000  10.37050000
  505  1   0.93792600   6.03349000  12.74260000
  506  1   0.93792600   6.03349000   0.29262200
  507  1   0.93792600  18.48350000  12.74260000
  508  1   0.93792600  18.48350000   0.29262200
  509  1   0.91729600   6.20484000   5.91358000
  510  1   0.91729600   6.20484000  18.36360000
  511  1   0.91729600  18.65480000   5.91358000
  512  1   0.91729600  18.65480000  18.36360000
  513  2   9.77537000   4.24743000  24.15960000
  514  2   9.77537000   4.24743000  11.70960000
  515  2   9.77537000  16.69740000  24.15960000
  516  2   9.77537000  16.69740000  11.70960000
  517  2   9.61298000   8.69345000   5.72935000
  518  2   9.61298000   8.69345000  18.17930000
  519  2   9.61298000  21.14350000   5.72935000
  520  2   9.61298000  21.14350000  18.17930000
  521  2   9.50015000   3.40773000   4.54011000
  522  2   9.50015000   3.40773000  16.99010000
  523  2   9.50015000  15.85770000   4.54011000
  524  2   9.50015000  15.85770000  16.99010000
  525  2   9.46585000   4.70182000  22.73710000
  526  2   9.46585000   4.70182000  10.28710000
  527  2   9.46585000  17.15180000  22.73710000
  528  2   9.46585000  17.15180000  10.28710000
  529  2   9.42457000   8.18276000  23.50140000
  530  2   9.42457000   8.18276000  11.05140000
  531  2   9.42457000  20.63280000  23.50140000
  532  2   9.42457000  20.63280000  11.05140000
  533  2   9.28460000  24.00960000   2.96870000
  534  2   9.28460000  24.00960000  15.41870000
  535  2   9.28460000  11.55960000   2.96870000
  536  2   9.28460000  11.55960000  15.41870000
  537  2   8.99447000   9.53031000   3.52290000
  538  2   8.99447000   9.53031000  15.97290000
  539  2   8.99447000  21.98030000   3.52290000
  540  2   8.99447000  21.98030000  15.97290000
  541  2   8.89545000   4.96363000   3.22973000
  542  2   8.89545000   4.96363000  15.67970000
  543  2   8.89545000  17.41360000   3.22973000
  544  2   8.89545000  17.41360000  15.67970000
  545  2   8.72751000   9.98746000   5.39974000
  546  2   8.72751000   9.98746000  17.84970000
  547  2   8.72751000  22.43750000   5.39974000
  548  2   8.72751000  22.43750000  17.84970000
  549  2   8.68852000   5.74601000   1.92233000
  550  2   8.68852000   5.74601000  14.37230000
  551  2   8.68852000  18.19600000   1.92233000
  552  2   8.68852000  18.19600000  14.37230000
  553  2   8.65741000   5.00341000   6.26683000
  554  2   8.65741000   5.00341000  18.71680000
  555  2   8.65741000  17.45340000   6.26683000
  556  2   8.65741000  17.45340000  18.71680000
  557  2   8.64692000   9.33847000  24.29500000
  558  2   8.64692000   9.33847000  11.84500000
  559  2   8.64692000  21.78850000  24.29500000
  560  2   8.64692000  21.78850000  11.84500000
  561  2   8.61292000  12.50580000   9.82216000
  562  2   8.61292000  12.50580000  22.27220000
  563  2   8.61292000   0.05580700   9.82216000
  564  2   8.61292000   0.05580700  22.27220000
  565  2   8.53592000  24.50750000   4.96019000
  566  2   8.53592000  24.50750000  17.41020000
  567  2   8.53592000  12.05750000   4.96019000
  568  2   8.53592000  12.05750000  17.41020000
  569  2   8.33988000  13.28980000  24.61650000
  570  2   8.33988000  13.28980000  12.16650000
  571  2   8.33988000   0.83976100  24.61650000
  572  2   8.33988000   0.83976100  12.16650000
  573  2   8.26254000  12.73970000   2.92487000
  574  2   8.26254000  12.73970000  15.37490000
  575  2   8.26254000   0.28966000   2.92487000
  576  2   8.26254000   0.28966000  15.37490000
  577  2   8.11607000   5.58443000  24.67490000
  578  2   8.11607000   5.58443000  12.22490000
  579  2   8.11607000  18.03440000  24.67490000
  580  2   8.11607000  18.03440000  12.22490000
  581  2   8.11466000   2.49796000   9.87456000
  582  2   8.11466000   2.49796000  22.32460000
  583  2   8.11466000  14.94800000   9.87456000
  584  2   8.11466000  14.94800000  22.32460000
  585  2   8.09450000   7.08678000  12.46230000
  586  2   8.09450000   7.08678000   0.01227780
  587  2   8.09450000  19.53680000  12.46230000
  588  2   8.09450000  19.53680000   0.01227780
  589  2   7.96361000   3.42662000   5.00959000
  590  2   7.96361000   3.42662000  17.45960000
  591  2   7.96361000  15.87660000   5.00959000
  592  2   7.96361000  15.87660000  17.45960000
  593  2   7.83411000   5.81493000   7.29619000
  594  2   7.83411000   5.81493000  19.74620000
  595  2   7.83411000  18.26490000   7.29619000
  596  2   7.83411000  18.26490000  19.74620000
  597  2   7.54295000   1.85044000  12.82300000
  598  2   7.54295000   1.85044000   0.37295700
  599  2   7.54295000  14.30040000  12.82300000
  600  2   7.54295000  14.30040000   0.37295700
  601  2   7.54104000  22.67540000  13.58640000
  602  2   7.54104000  22.67540000   1.13645000
  603  2   7.54104000  10.22540000  13.58640000
  604  2   7.54104000  10.22540000   1.13645000
  605  2   7.46923000  24.76000000   7.42785000
  606  2   7.46923000  24.76000000  19.87790000
  607  2   7.46923000  12.31000000   7.42785000
  608  2   7.46923000  12.31000000  19.87790000
  609  2   7.33333000   1.47646000   9.00866000
  610  2   7.33333000   1.47646000  21.45870000
  611  2   7.33333000  13.92650000   9.00866000
  612  2   7.33333000  13.92650000  21.45870000
  613  2   7.30473000  23.91660000   5.49248000
  614  2   7.30473000  23.91660000  17.94250000
  615  2   7.30473000  11.46660000   5.49248000
  616  2   7.30473000  11.46660000  17.94250000
  617  2   7.23634000   7.08644000   5.37284000
  618  2   7.23634000   7.08644000  17.82280000
  619  2   7.23634000  19.53640000   5.37284000
  620  2   7.23634000  19.53640000  17.82280000
  621  2   7.17309000   9.41080000   7.84608000
  622  2   7.17309000   9.41080000  20.29610000