DPLR conf script

2048 atoms
3 atom types
512 bonds
1 bond types

0.0 24.9 xlo xhi
0.0 24.9 ylo yhi
0.0 24.9 zlo zhi

Masses

1 15.999
2 2.014 
3 15.999

Atoms

1 1 1 6 5.19449 14.9704 10.8267
2 2 1 6 5.18736 2.56855 13.5763
3 3 1 6 9.13632 22.4591 15.0763
4 4 1 6 5.18736 2.56855 1.12631
5 5 1 6 5.18736 15.0186 13.5763
6 6 1 6 5.18736 15.0186 1.12631
7 7 1 6 5.10271 24.5402 22.7545
8 8 1 6 5.10271 24.5402 10.3045
9 9 1 6 5.10271 12.0902 22.7545
10 10 1 6 5.10271 12.0902 10.3045
11 11 1 6 5.02301 4.75637 4.49346
12 12 1 6 5.02301 4.75637 16.9435
13 13 1 6 5.02301 17.2064 4.49346
14 14 1 6 9.13632 10.0091 2.62634
15 15 1 6 5.02301 17.2064 16.9435
16 16 1 6 4.73061 1.51209 6.14099
17 17 1 6 4.73061 1.51209 18.591
18 18 1 6 4.73061 13.9621 6.14099
19 19 1 6 4.73061 13.9621 18.591
20 20 1 6 4.64717 23.15 6.53754
21 21 1 6 4.64717 23.15 18.9875
22 22 1 6 4.64717 10.7 6.53754
23 23 1 6 9.37302 5.58507 2.63624
24 24 1 6 4.64717 10.7 18.9875
25 25 1 6 4.35082 5.07437 7.68393
26 26 1 6 9.13632 10.0091 15.0763
27 27 1 6 4.35082 5.07437 20.1339
28 28 1 6 4.35082 17.5244 7.68393
29 29 1 6 4.35082 17.5244 20.1339
30 30 1 6 3.69778 5.46317 13.388
31 31 1 6 3.69778 5.46317 0.937964
32 32 1 6 3.69778 17.9132 13.388
33 33 1 6 3.69778 17.9132 0.937964
34 34 1 6 3.44248 2.48991 8.74588
35 35 1 6 3.44248 2.48991 21.1959
36 36 1 6 3.44248 14.9399 8.74588
37 37 1 6 9.10365 12.6849 23.0922
38 38 1 6 3.44248 14.9399 21.1959
39 39 1 6 3.42457 8.77627 1.91022
40 40 1 6 3.42457 8.77627 14.3602
41 41 1 6 3.42457 21.2263 1.91022
42 42 1 6 3.42457 21.2263 14.3602
43 43 1 6 3.30673 13.0133 13.8141
44 44 1 6 3.30673 13.0133 1.36412
45 45 1 6 3.30673 0.563327 13.8141
46 46 1 6 3.30673 0.563327 1.36412
47 47 1 6 3.17872 12.4808 4.27195
48 48 1 6 9.10365 12.6849 10.6422
49 49 1 6 3.17872 12.4808 16.722
50 50 1 6 3.17872 0.0308236 4.27195
51 51 1 6 3.17872 0.0308236 16.722
52 52 1 6 3.10481 8.85821 23.8439
53 53 1 6 3.10481 8.85821 11.3939
54 54 1 6 3.10481 21.3082 23.8439
55 55 1 6 3.10481 21.3082 11.3939
56 56 1 6 2.60365 24.8266 8.84572
57 57 1 6 2.60365 24.8266 21.2957
58 58 1 6 2.60365 12.3766 8.84572
59 59 1 6 9.10365 0.234864 23.0922
60 60 1 6 2.60365 12.3766 21.2957
61 61 1 6 24.7565 22.703 7.17995
62 62 1 6 24.7565 22.703 19.63
63 63 1 6 24.7565 10.253 7.17995
64 64 1 6 24.7565 10.253 19.63
65 65 1 6 2.44542 4.73382 3.93997
66 66 1 6 2.44542 4.73382 16.39
67 67 1 6 2.44542 17.1838 3.93997
68 68 1 6 2.44542 17.1838 16.39
69 69 1 6 24.4501 24.5654 9.45272
70 70 1 6 9.10365 0.234864 10.6422
71 71 1 6 24.4501 24.5654 21.9027
72 72 1 6 24.4501 12.1154 9.45272
73 73 1 6 24.4501 12.1154 21.9027
74 74 1 6 23.9202 4.56958 6.33466
75 75 1 6 23.9202 4.56958 18.7847
76 76 1 6 23.9202 17.0196 6.33466
77 77 1 6 23.9202 17.0196 18.7847
78 78 1 6 23.912 2.51604 8.49996
79 79 1 6 23.912 2.51604 20.95
80 80 1 6 23.912 14.966 8.49996
81 81 1 6 9.08698 8.51087 24.3352
82 82 1 6 23.912 14.966 20.95
83 83 1 6 23.9087 9.0303 1.68247
84 84 1 6 23.9087 9.0303 14.1325
85 85 1 6 23.9087 21.4803 1.68247
86 86 1 6 23.9087 21.4803 14.1325
87 87 1 6 23.8047 3.09 3.92846
88 88 1 6 23.8047 3.09 16.3785
89 89 1 6 23.8047 15.54 3.92846
90 90 1 6 23.8047 15.54 16.3785
91 91 1 6 23.7413 7.13015 3.89622
92 92 1 6 9.08698 8.51087 11.8852
93 93 1 6 23.7413 7.13015 16.3462
94 94 1 6 23.7413 19.5801 3.89622
95 95 1 6 23.7413 19.5801 16.3462
96 96 1 6 23.6296 9.38326 9.88034
97 97 1 6 23.6296 9.38326 22.3303
98 98 1 6 23.6296 21.8333 9.88034
99 99 1 6 23.6296 21.8333 22.3303
100 100 1 6 23.5897 12.5012 5.24388
101 101 1 6 23.5897 12.5012 17.6939
102 102 1 6 23.5897 0.0511936 5.24388
103 103 1 6 9.08698 20.9609 24.3352
104 104 1 6 23.5897 0.0511936 17.6939
105 105 1 6 23.511 6.01533 9.09243
106 106 1 6 23.511 6.01533 21.5424
107 107 1 6 23.511 18.4653 9.09243
108 108 1 6 23.511 18.4653 21.5424
109 109 1 6 23.4608 13.7174 13.5751
110 110 1 6 23.4608 13.7174 1.12512
111 111 1 6 23.4608 1.26739 13.5751
112 112 1 6 23.4608 1.26739 1.12512
113 113 1 6 23.4145 4.17736 13.3841
114 114 1 6 9.08698 20.9609 11.8852
115 115 1 6 23.4145 4.17736 0.934147
116 116 1 6 23.4145 16.6274 13.3841
117 117 1 6 23.4145 16.6274 0.934147
118 118 1 6 23.3069 7.92163 6.4518
119 119 1 6 23.3069 7.92163 18.9018
120 120 1 6 23.3069 20.3716 6.4518
121 121 1 6 23.3069 20.3716 18.9018
122 122 1 6 21.823 5.58507 2.63624
123 123 1 6 21.823 5.58507 15.0862
124 124 1 6 21.823 18.0351 2.63624
125 125 1 6 8.99987 4.44651 23.5626
126 126 1 6 21.823 18.0351 15.0862
127 127 1 6 21.6434 12.5481 3.14167
128 128 1 6 21.6434 12.5481 15.5917
129 129 1 6 21.6434 0.0980996 3.14167
130 130 1 6 21.6434 0.0980996 15.5917
131 131 1 6 21.5863 22.4591 2.62634
132 132 1 6 21.5863 22.4591 15.0763
133 133 1 6 21.5863 10.0091 2.62634
134 134 1 6 9.37302 5.58507 15.0862
135 135 1 6 21.5863 10.0091 15.0763
136 136 1 6 21.5537 12.6849 23.0922
137 137 1 6 8.99987 4.44651 11.1126
138 138 1 6 21.5537 12.6849 10.6422
139 139 1 6 21.5537 0.234864 23.0922
140 140 1 6 21.5537 0.234864 10.6422
141 141 1 6 21.537 8.51087 24.3352
142 142 1 6 21.537 8.51087 11.8852
143 143 1 6 21.537 20.9609 24.3352
144 144 1 6 21.537 20.9609 11.8852
145 145 1 6 21.4499 4.44651 23.5626
146 146 1 6 21.4499 4.44651 11.1126
147 147 1 6 21.4499 16.8965 23.5626
148 148 1 6 8.99987 16.8965 23.5626
149 149 1 6 21.4499 16.8965 11.1126
150 150 1 6 21.2868 9.06654 5.12498
151 151 1 6 21.2868 9.06654 17.575
152 152 1 6 21.2868 21.5165 5.12498
153 153 1 6 21.2868 21.5165 17.575
154 154 1 6 21.2046 3.93124 4.86757
155 155 1 6 21.2046 3.93124 17.3176
156 156 1 6 21.2046 16.3812 4.86757
157 157 1 6 21.2046 16.3812 17.3176
158 158 1 6 20.9755 5.93355 6.67629
159 159 1 6 8.99987 16.8965 11.1126
160 160 1 6 20.9755 5.93355 19.1263
161 161 1 6 20.9755 18.3836 6.67629
162 162 1 6 20.9755 18.3836 19.1263
163 163 1 6 20.6586 24.0541 5.76742
164 164 1 6 20.6586 24.0541 18.2174
165 165 1 6 20.6586 11.6042 5.76742
166 166 1 6 20.6586 11.6042 18.2174
167 167 1 6 20.4995 13.5659 13.047
168 168 1 6 20.4995 13.5659 0.59701
169 169 1 6 20.4995 1.11592 13.047
170 170 1 6 8.83682 9.06654 5.12498
171 171 1 6 20.4995 1.11592 0.59701
172 172 1 6 20.1472 6.2772 12.8505
173 173 1 6 20.1472 6.2772 0.400508
174 174 1 6 20.1472 18.7272 12.8505
175 175 1 6 20.1472 18.7272 0.400508
176 176 1 6 19.936 24.7208 8.45154
177 177 1 6 19.936 24.7208 20.9015
178 178 1 6 19.936 12.2708 8.45154
179 179 1 6 19.936 12.2708 20.9015
180 180 1 6 19.904 2.51566 9.17135
181 181 1 6 8.83682 9.06654 17.575
182 182 1 6 19.904 2.51566 21.6214
183 183 1 6 19.904 14.9657 9.17135
184 184 1 6 19.904 14.9657 21.6214
185 185 1 6 1.98188 6.08294 8.43576
186 186 1 6 1.98188 6.08294 20.8858
187 187 1 6 1.98188 18.5329 8.43576
188 188 1 6 1.98188 18.5329 20.8858
189 189 1 6 19.3607 9.55699 13.2275
190 190 1 6 19.3607 9.55699 0.77751
191 191 1 6 19.3607 22.007 13.2275
192 192 1 6 8.83682 21.5165 5.12498
193 193 1 6 19.3607 22.007 0.77751
194 194 1 6 19.004 2.68656 4.63799
195 195 1 6 19.004 2.68656 17.088
196 196 1 6 19.004 15.1366 4.63799
197 197 1 6 19.004 15.1366 17.088
198 198 1 6 18.9519 12.7962 3.00656
199 199 1 6 18.9519 12.7962 15.4566
200 200 1 6 18.9519 0.346207 3.00656
201 201 1 6 18.9519 0.346207 15.4566
202 202 1 6 18.9154 9.80068 8.41661
203 203 1 6 8.83682 21.5165 17.575
204 204 1 6 18.9154 9.80068 20.8666
205 205 1 6 18.9154 22.2507 8.41661
206 206 1 6 18.9154 22.2507 20.8666
207 207 1 6 18.7732 7.12507 4.96525
208 208 1 6 18.7732 7.12507 17.4152
209 209 1 6 18.7732 19.5751 4.96525
210 210 1 6 18.7732 19.5751 17.4152
211 211 1 6 18.659 6.13149 9.55696
212 212 1 6 18.659 6.13149 22.007
213 213 1 6 18.659 18.5815 9.55696
214 214 1 6 8.75464 3.93124 4.86757
215 215 1 6 18.659 18.5815 22.007
216 216 1 6 18.3393 7.60974 2.44411
217 217 1 6 18.3393 7.60974 14.8941
218 218 1 6 18.3393 20.0597 2.44411
219 219 1 6 18.3393 20.0597 14.8941
220 220 1 6 18.2356 22.6437 4.22266
221 221 1 6 18.2356 22.6437 16.6727
222 222 1 6 18.2356 10.1937 4.22266
223 223 1 6 18.2356 10.1937 16.6727
224 224 1 6 18.1682 8.3451 23.1586
225 225 1 6 8.75464 3.93124 17.3176
226 226 1 6 18.1682 8.3451 10.7086
227 227 1 6 18.1682 20.7951 23.1586
228 228 1 6 18.1682 20.7951 10.7086
229 229 1 6 17.7273 24.1529 12.93
230 230 1 6 17.7273 24.1529 0.480022
231 231 1 6 17.7273 11.7029 12.93
232 232 1 6 17.7273 11.7029 0.480022
233 233 1 6 17.6445 2.52043 23.2767
234 234 1 6 17.6445 2.52043 10.8267
235 235 1 6 17.6445 14.9704 23.2767
236 236 1 6 8.75464 16.3812 4.86757
237 237 1 6 17.6445 14.9704 10.8267
238 238 1 6 17.6374 2.56855 13.5763
239 239 1 6 17.6374 2.56855 1.12631
240 240 1 6 17.6374 15.0186 13.5763
241 241 1 6 17.6374 15.0186 1.12631
242 242 1 6 17.5527 24.5402 22.7545
243 243 1 6 17.5527 24.5402 10.3045
244 244 1 6 17.5527 12.0902 22.7545
245 245 1 6 9.37302 18.0351 2.63624
246 246 1 6 17.5527 12.0902 10.3045
247 247 1 6 17.473 4.75637 4.49346
248 248 1 6 8.75464 16.3812 17.3176
249 249 1 6 17.473 4.75637 16.9435
250 250 1 6 17.473 17.2064 4.49346
251 251 1 6 17.473 17.2064 16.9435
252 252 1 6 17.1806 1.51209 6.14099
253 253 1 6 17.1806 1.51209 18.591
254 254 1 6 17.1806 13.9621 6.14099
255 255 1 6 17.1806 13.9621 18.591
256 256 1 6 17.0972 23.15 6.53754
257 257 1 6 17.0972 23.15 18.9875
258 258 1 6 17.0972 10.7 6.53754
259 259 1 6 8.52547 5.93355 6.67629
260 260 1 6 17.0972 10.7 18.9875
261 261 1 6 16.8008 5.07437 7.68393
262 262 1 6 16.8008 5.07437 20.1339
263 263 1 6 16.8008 17.5244 7.68393
264 264 1 6 16.8008 17.5244 20.1339
265 265 1 6 16.1478 5.46317 13.388
266 266 1 6 16.1478 5.46317 0.937964
267 267 1 6 16.1478 17.9132 13.388
268 268 1 6 16.1478 17.9132 0.937964
269 269 1 6 15.8925 2.48991 8.74588
270 270 1 6 8.52547 5.93355 19.1263
271 271 1 6 15.8925 2.48991 21.1959
272 272 1 6 15.8925 14.9399 8.74588
273 273 1 6 15.8925 14.9399 21.1959
274 274 1 6 15.8746 8.77627 1.91022
275 275 1 6 15.8746 8.77627 14.3602
276 276 1 6 15.8746 21.2263 1.91022
277 277 1 6 15.8746 21.2263 14.3602
278 278 1 6 15.7567 13.0133 13.8141
279 279 1 6 15.7567 13.0133 1.36412
280 280 1 6 15.7567 0.563327 13.8141
281 281 1 6 8.52547 18.3836 6.67629
282 282 1 6 15.7567 0.563327 1.36412
283 283 1 6 1.57528 2.81795 6.32908
284 284 1 6 1.57528 2.81795 18.7791
285 285 1 6 1.57528 15.268 6.32908
286 286 1 6 1.57528 15.268 18.7791
287 287 1 6 15.6287 12.4808 4.27195
288 288 1 6 15.6287 12.4808 16.722
289 289 1 6 15.6287 0.0308236 4.27195
290 290 1 6 15.6287 0.0308236 16.722
291 291 1 6 15.5548 8.85821 23.8439
292 292 1 6 8.52547 18.3836 19.1263
293 293 1 6 15.5548 8.85821 11.3939
294 294 1 6 15.5548 21.3082 23.8439
295 295 1 6 15.5548 21.3082 11.3939
296 296 1 6 15.0537 24.8266 8.84572
297 297 1 6 15.0537 24.8266 21.2957
298 298 1 6 15.0537 12.3766 8.84572
299 299 1 6 15.0537 12.3766 21.2957
300 300 1 6 14.8954 4.73382 3.93997
301 301 1 6 14.8954 4.73382 16.39
302 302 1 6 14.8954 17.1838 3.93997
303 303 1 6 8.20863 24.0541 5.76742
304 304 1 6 14.8954 17.1838 16.39
305 305 1 6 1.48868 12.599 6.29854
306 306 1 6 1.48868 12.599 18.7485
307 307 1 6 1.48868 0.14898 6.29854
308 308 1 6 1.48868 0.14898 18.7485
309 309 1 6 14.4319 6.08294 8.43576
310 310 1 6 14.4319 6.08294 20.8858
311 311 1 6 14.4319 18.5329 8.43576
312 312 1 6 14.4319 18.5329 20.8858
313 313 1 6 14.0253 2.81795 6.32908
314 314 1 6 8.20863 24.0541 18.2174
315 315 1 6 14.0253 2.81795 18.7791
316 316 1 6 14.0253 15.268 6.32908
317 317 1 6 14.0253 15.268 18.7791
318 318 1 6 13.9387 12.599 6.29854
319 319 1 6 13.9387 12.599 18.7485
320 320 1 6 13.9387 0.14898 6.29854
321 321 1 6 13.9387 0.14898 18.7485
322 322 1 6 13.7633 23.0029 2.7751
323 323 1 6 13.7633 23.0029 15.2251
324 324 1 6 13.7633 10.5529 2.7751
325 325 1 6 8.20863 11.6042 5.76742
326 326 1 6 13.7633 10.5529 15.2251
327 327 1 6 13.7474 6.74104 2.83177
328 328 1 6 13.7474 6.74104 15.2818
329 329 1 6 13.7474 19.191 2.83177
330 330 1 6 13.7474 19.191 15.2818
331 331 1 6 13.6726 9.23769 5.20346
332 332 1 6 13.6726 9.23769 17.6535
333 333 1 6 13.6726 21.6877 5.20346
334 334 1 6 13.6726 21.6877 17.6535
335 335 1 6 13.6657 3.52041 9.77003
336 336 1 6 8.20863 11.6042 18.2174
337 337 1 6 13.6657 3.52041 22.22
338 338 1 6 13.6657 15.9704 9.77003
339 339 1 6 13.6657 15.9704 22.22
340 340 1 6 13.6511 13.3401 24.3431
341 341 1 6 13.6511 13.3401 11.8931
342 342 1 6 13.6511 0.890072 24.3431
343 343 1 6 13.6511 0.890072 11.8931
344 344 1 6 13.4327 2.66418 2.1567
345 345 1 6 13.4327 2.66418 14.6067
346 346 1 6 13.4327 15.1142 2.1567
347 347 1 6 8.04947 13.5659 13.047
348 348 1 6 13.4327 15.1142 14.6067
349 349 1 6 13.4207 7.61598 22.8205
350 350 1 6 13.4207 7.61598 10.3705
351 351 1 6 13.4207 20.066 22.8205
352 352 1 6 13.4207 20.066 10.3705
353 353 1 6 13.3879 6.03349 12.7426
354 354 1 6 13.3879 6.03349 0.292622
355 355 1 6 13.3879 18.4835 12.7426
356 356 1 6 9.37302 18.0351 15.0862
357 357 1 6 13.3879 18.4835 0.292622
358 358 1 6 13.3673 6.20484 5.91358
359 359 1 6 8.04947 13.5659 0.59701
360 360 1 6 13.3673 6.20484 18.3636
361 361 1 6 13.3673 18.6548 5.91358
362 362 1 6 13.3673 18.6548 18.3636
363 363 1 6 1.31327 23.0029 2.7751
364 364 1 6 1.31327 23.0029 15.2251
365 365 1 6 1.31327 10.5529 2.7751
366 366 1 6 1.31327 10.5529 15.2251
367 367 1 6 1.2974 6.74104 2.83177
368 368 1 6 1.2974 6.74104 15.2818
369 369 1 6 1.2974 19.191 2.83177
370 370 1 6 8.04947 1.11592 13.047
371 371 1 6 1.2974 19.191 15.2818
372 372 1 6 12.3064 22.703 7.17995
373 373 1 6 12.3064 22.703 19.63
374 374 1 6 12.3064 10.253 7.17995
375 375 1 6 12.3064 10.253 19.63
376 376 1 6 1.22261 9.23769 5.20346
377 377 1 6 1.22261 9.23769 17.6535
378 378 1 6 1.22261 21.6877 5.20346
379 379 1 6 1.22261 21.6877 17.6535
380 380 1 6 1.21572 3.52041 9.77003
381 381 1 6 8.04947 1.11592 0.59701
382 382 1 6 1.21572 3.52041 22.22
383 383 1 6 1.21572 15.9704 9.77003
384 384 1 6 1.21572 15.9704 22.22
385 385 1 6 1.20106 13.3401 24.3431
386 386 1 6 1.20106 13.3401 11.8931
387 387 1 6 1.20106 0.890072 24.3431
388 388 1 6 1.20106 0.890072 11.8931
389 389 1 6 12.0001 24.5654 9.45272
390 390 1 6 12.0001 24.5654 21.9027
391 391 1 6 12.0001 12.1154 9.45272
392 392 1 6 7.69724 6.2772 12.8505
393 393 1 6 12.0001 12.1154 21.9027
394 394 1 6 11.4702 4.56958 6.33466
395 395 1 6 11.4702 4.56958 18.7847
396 396 1 6 11.4702 17.0196 6.33466
397 397 1 6 11.4702 17.0196 18.7847
398 398 1 6 11.462 2.51604 8.49996
399 399 1 6 11.462 2.51604 20.95
400 400 1 6 11.462 14.966 8.49996
401 401 1 6 11.462 14.966 20.95
402 402 1 6 11.4587 9.0303 1.68247
403 403 1 6 7.69724 6.2772 0.400508
404 404 1 6 11.4587 9.0303 14.1325
405 405 1 6 11.4587 21.4803 1.68247
406 406 1 6 11.4587 21.4803 14.1325
407 407 1 6 11.3547 3.09 3.92846
408 408 1 6 11.3547 3.09 16.3785
409 409 1 6 11.3547 15.54 3.92846
410 410 1 6 11.3547 15.54 16.3785
411 411 1 6 11.2913 7.13015 3.89622
412 412 1 6 11.2913 7.13015 16.3462
413 413 1 6 11.2913 19.5801 3.89622
414 414 1 6 7.69724 18.7272 12.8505
415 415 1 6 11.2913 19.5801 16.3462
416 416 1 6 11.1796 9.38326 9.88034
417 417 1 6 11.1796 9.38326 22.3303
418 418 1 6 11.1796 21.8333 9.88034
419 419 1 6 11.1796 21.8333 22.3303
420 420 1 6 11.1397 12.5012 5.24388
421 421 1 6 11.1397 12.5012 17.6939
422 422 1 6 11.1397 0.0511936 5.24388
423 423 1 6 11.1397 0.0511936 17.6939
424 424 1 6 11.061 6.01533 9.09243
425 425 1 6 7.69724 18.7272 0.400508
426 426 1 6 11.061 6.01533 21.5424
427 427 1 6 11.061 18.4653 9.09243
428 428 1 6 11.061 18.4653 21.5424
429 429 1 6 11.0108 13.7174 13.5751
430 430 1 6 11.0108 13.7174 1.12512
431 431 1 6 11.0108 1.26739 13.5751
432 432 1 6 11.0108 1.26739 1.12512
433 433 1 6 10.9645 4.17736 13.3841
434 434 1 6 10.9645 4.17736 0.934147
435 435 1 6 10.9645 16.6274 13.3841
436 436 1 6 7.48599 24.7208 8.45154
437 437 1 6 10.9645 16.6274 0.934147
438 438 1 6 10.8569 7.92163 6.4518
439 439 1 6 10.8569 7.92163 18.9018
440 440 1 6 10.8569 20.3716 6.4518
441 441 1 6 10.8569 20.3716 18.9018
442 442 1 6 0.982708 2.66418 2.1567
443 443 1 6 0.982708 2.66418 14.6067
444 444 1 6 0.982708 15.1142 2.1567
445 445 1 6 0.982708 15.1142 14.6067
446 446 1 6 0.970666 7.61598 22.8205
447 447 1 6 7.48599 24.7208 20.9015
448 448 1 6 0.970666 7.61598 10.3705
449 449 1 6 0.970666 20.066 22.8205
450 450 1 6 0.970666 20.066 10.3705
451 451 1 6 0.937926 6.03349 12.7426
452 452 1 6 0.937926 6.03349 0.292622
453 453 1 6 0.937926 18.4835 12.7426
454 454 1 6 0.937926 18.4835 0.292622
455 455 1 6 0.917296 6.20484 5.91358
456 456 1 6 0.917296 6.20484 18.3636
457 457 1 6 0.917296 18.6548 5.91358
458 458 1 6 7.48599 12.2708 8.45154
459 459 1 6 0.917296 18.6548 18.3636
460 460 1 6 9.19343 12.5481 3.14167
461 461 1 6 7.48599 12.2708 20.9015
462 462 1 6 7.45405 2.51566 9.17135
463 463 1 6 7.45405 2.51566 21.6214
464 464 1 6 7.45405 14.9657 9.17135
465 465 1 6 7.45405 14.9657 21.6214
466 466 1 6 6.91065 9.55699 13.2275
467 467 1 6 6.91065 9.55699 0.77751
468 468 1 6 6.91065 22.007 13.2275
469 469 1 6 6.91065 22.007 0.77751
470 470 1 6 6.55397 2.68656 4.63799
471 471 1 6 9.19343 12.5481 15.5917
472 472 1 6 6.55397 2.68656 17.088
473 473 1 6 6.55397 15.1366 4.63799
474 474 1 6 6.55397 15.1366 17.088
475 475 1 6 6.50192 12.7962 3.00656
476 476 1 6 6.50192 12.7962 15.4566
477 477 1 6 6.50192 0.346207 3.00656
478 478 1 6 6.50192 0.346207 15.4566
479 479 1 6 6.46536 9.80068 8.41661
480 480 1 6 6.46536 9.80068 20.8666
481 481 1 6 6.46536 22.2507 8.41661
482 482 1 6 9.19343 0.0980996 3.14167
483 483 1 6 6.46536 22.2507 20.8666
484 484 1 6 6.32324 7.12507 4.96525
485 485 1 6 6.32324 7.12507 17.4152
486 486 1 6 6.32324 19.5751 4.96525
487 487 1 6 6.32324 19.5751 17.4152
488 488 1 6 6.20899 6.13149 9.55696
489 489 1 6 6.20899 6.13149 22.007
490 490 1 6 6.20899 18.5815 9.55696
491 491 1 6 6.20899 18.5815 22.007
492 492 1 6 5.8893 7.60974 2.44411
493 493 1 6 9.19343 0.0980996 15.5917
494 494 1 6 5.8893 7.60974 14.8941
495 495 1 6 5.8893 20.0597 2.44411
496 496 1 6 5.8893 20.0597 14.8941
497 497 1 6 5.78559 22.6437 4.22266
498 498 1 6 5.78559 22.6437 16.6727
499 499 1 6 5.78559 10.1937 4.22266
500 500 1 6 5.78559 10.1937 16.6727
501 501 1 6 5.71816 8.3451 23.1586
502 502 1 6 5.71816 8.3451 10.7086
503 503 1 6 5.71816 20.7951 23.1586
504 504 1 6 9.13632 22.4591 2.62634
505 505 1 6 5.71816 20.7951 10.7086
506 506 1 6 5.2773 24.1529 12.93
507 507 1 6 5.2773 24.1529 0.480022
508 508 1 6 5.2773 11.7029 12.93
509 509 1 6 5.2773 11.7029 0.480022
510 510 1 6 5.19449 2.52043 23.2767
511 511 1 6 5.19449 2.52043 10.8267
512 512 1 6 5.19449 14.9704 23.2767
513 513 2 1 20.2841 18.2649 19.7462
514 514 2 1 2.02506 22.4868 2.32995
515 515 2 1 2.02506 22.4868 14.7799
516 516 2 1 2.02506 10.0368 2.32995
517 517 2 1 2.02506 10.0368 14.7799
518 518 2 1 19.9929 1.85044 12.823
519 519 2 1 19.9929 1.85044 0.372957
520 520 2 1 19.9929 14.3004 12.823
521 521 2 1 19.9929 14.3004 0.372957
522 522 2 1 19.991 22.6754 13.5864
523 523 2 1 19.991 22.6754 1.13645
524 524 2 1 19.991 10.2254 13.5864
525 525 2 1 19.991 10.2254 1.13645
526 526 2 1 1.99369 24.7254 7.03449
527 527 2 1 1.99369 24.7254 19.4845
528 528 2 1 1.99369 12.2754 7.03449
529 529 2 1 1.99369 12.2754 19.4845
530 530 2 1 19.9192 24.76 7.42785
531 531 2 1 19.9192 24.76 19.8779
532 532 2 1 19.9192 12.31 7.42785
533 533 2 1 19.9192 12.31 19.8779
534 534 2 1 19.7833 1.47646 9.00866
535 535 2 1 19.7833 1.47646 21.4587
536 536 2 1 19.7833 13.9265 9.00866
537 537 2 1 19.7833 13.9265 21.4587
538 538 2 1 19.7547 23.9166 5.49248
539 539 2 1 19.7547 23.9166 17.9425
540 540 2 1 19.7547 11.4666 5.49248
541 541 2 1 19.7547 11.4666 17.9425
542 542 2 1 1.97244 5.30522 4.53088
543 543 2 1 1.97244 5.30522 16.9809
544 544 2 1 1.97244 17.7552 4.53088
545 545 2 1 1.97244 17.7552 16.9809
546 546 2 1 19.6863 7.08644 5.37284
547 547 2 1 19.6863 7.08644 17.8228
548 548 2 1 19.6863 19.5364 5.37284
549 549 2 1 19.6863 19.5364 17.8228
550 550 2 1 19.6231 9.4108 7.84608
551 551 2 1 19.6231 9.4108 20.2961
552 552 2 1 19.6231 21.8608 7.84608
553 553 2 1 19.6231 21.8608 20.2961
554 554 2 1 1.96018 9.78623 5.49621
555 555 2 1 1.96018 9.78623 17.9462
556 556 2 1 1.96018 22.2362 5.49621
557 557 2 1 1.96018 22.2362 17.9462
558 558 2 1 19.5214 8.79023 1.40665
559 559 2 1 19.5214 8.79023 13.8567
560 560 2 1 19.5214 21.2402 1.40665
561 561 2 1 19.5214 21.2402 13.8567
562 562 2 1 1.93488 3.02448 9.39726
563 563 2 1 1.93488 3.02448 21.8473
564 564 2 1 1.93488 15.4745 9.39726
565 565 2 1 1.93488 15.4745 21.8473
566 566 2 1 19.2962 24.1476 8.79098
567 567 2 1 19.2962 24.1476 21.241
568 568 2 1 19.2962 11.6976 8.79098
569 569 2 1 19.2962 11.6976 21.241
570 570 2 1 19.0626 5.38464 22.4908
571 571 2 1 19.0626 5.38464 10.0408
572 572 2 1 19.0626 17.8346 22.4908
573 573 2 1 19.0626 17.8346 10.0408
574 574 2 1 19.0347 2.00658 3.891
575 575 2 1 19.0347 2.00658 16.341
576 576 2 1 19.0347 14.4566 3.891
577 577 2 1 19.0347 14.4566 16.341
578 578 2 1 18.8963 9.49146 4.2402
579 579 2 1 18.8963 9.49146 16.6902
580 580 2 1 18.8963 21.9415 4.2402
581 581 2 1 18.8963 21.9415 16.6902
582 582 2 1 18.8601 12.7149 2.032
583 583 2 1 18.8601 12.7149 14.482
584 584 2 1 18.8601 0.264932 2.032
585 585 2 1 18.8601 0.264932 14.482
586 586 2 1 18.7826 9.20981 9.20634
587 587 2 1 18.7826 9.20981 21.6563
588 588 2 1 18.7826 21.6598 9.20634
589 589 2 1 18.7826 21.6598 21.6563
590 590 2 1 18.781 6.87681 1.97649
591 591 2 1 18.781 6.87681 14.4265
592 592 2 1 18.781 19.3268 1.97649
593 593 2 1 18.781 19.3268 14.4265
594 594 2 1 1.87206 7.50789 2.57094
595 595 2 1 1.87206 7.50789 15.0209
596 596 2 1 1.87206 19.9579 2.57094
597 597 2 1 1.87206 19.9579 15.0209
598 598 2 1 1.87182 5.40766 9.05737
599 599 2 1 1.87182 5.40766 21.5074
600 600 2 1 1.87182 17.8577 9.05737
601 601 2 1 1.87182 17.8577 21.5074
602 602 2 1 18.5709 24.4096 3.38337
603 603 2 1 18.5709 24.4096 15.8334
604 604 2 1 18.5709 11.9596 3.38337
605 605 2 1 18.5709 11.9596 15.8334
606 606 2 1 18.5486 7.51494 3.51515
607 607 2 1 18.5486 7.51494 15.9651
608 608 2 1 18.5486 19.9649 3.51515
609 609 2 1 18.5486 19.9649 15.9651
610 610 2 1 18.5094 2.83174 23.0646
611 611 2 1 18.5094 2.83174 10.6146
612 612 2 1 18.5094 15.2817 23.0646
613 613 2 1 18.5094 15.2817 10.6146
614 614 2 1 18.4936 8.47296 24.0664
615 615 2 1 18.4936 8.47296 11.6164
616 616 2 1 18.4936 20.923 24.0664
617 617 2 1 18.4936 20.923 11.6164
618 618 2 1 18.3782 7.42405 22.9911
619 619 2 1 18.3782 7.42405 10.5411
620 620 2 1 18.3782 19.874 22.9911
621 621 2 1 18.3782 19.874 10.5411
622 622 2 1 18.3674 6.19247 4.80722
623 623 2 1 18.3674 6.19247 17.2572
624 624 2 1 18.3674 18.6425 4.80722
625 625 2 1 18.3674 18.6425 17.2572
626 626 2 1 18.3147 2.29982 5.2863
627 627 2 1 18.3147 2.29982 17.7363
628 628 2 1 18.3147 14.7498 5.2863
629 629 2 1 18.3147 14.7498 17.7363
630 630 2 1 18.0317 5.69197 8.92969
631 631 2 1 18.0317 5.69197 21.3797
632 632 2 1 18.0317 18.142 8.92969
633 633 2 1 18.0317 18.142 21.3797
634 634 2 1 17.9785 23.3485 13.4012
635 635 2 1 17.9785 23.3485 0.951161
636 636 2 1 17.9785 10.8985 13.4012
637 637 2 1 17.9785 10.8985 0.951161
638 638 2 1 17.8868 3.8912 4.35096
639 639 2 1 17.8868 3.8912 16.801
640 640 2 1 17.8868 16.3412 4.35096
641 641 2 1 17.8868 16.3412 16.801
642 642 2 1 17.7775 24.2956 23.6918
643 643 2 1 17.7775 24.2956 11.2418
644 644 2 1 17.7775 11.8456 23.6918
645 645 2 1 17.7775 11.8456 11.2418
646 646 2 1 17.756 22.5983 5.09029
647 647 2 1 17.756 22.5983 17.5403
648 648 2 1 17.756 10.1484 5.09029
649 649 2 1 17.756 10.1484 17.5403
650 650 2 1 17.5271 2.67147 24.2823
651 651 2 1 17.5271 2.67147 11.8323
652 652 2 1 17.5271 15.1215 24.2823
653 653 2 1 17.5271 15.1215 11.8323
654 654 2 1 17.4901 13.0253 22.854
655 655 2 1 17.4901 13.0253 10.404
656 656 2 1 17.4901 0.575256 22.854
657 657 2 1 17.4901 0.575256 10.404
658 658 2 1 17.4547 22.737 7.29014
659 659 2 1 17.4547 22.737 19.7401
660 660 2 1 17.4547 10.287 7.29014
661 661 2 1 17.4547 10.287 19.7401
662 662 2 1 17.3152 5.45574 6.9293
663 663 2 1 17.3152 5.45574 19.3793
664 664 2 1 17.3152 17.9057 6.9293
665 665 2 1 17.3152 17.9057 19.3793
666 666 2 1 1.72718 3.1684 2.59354
667 667 2 1 1.72718 3.1684 15.0435
668 668 2 1 1.72718 15.6184 2.59354
669 669 2 1 1.72718 15.6184 15.0435
670 670 2 1 17.238 3.43949 1.47054
671 671 2 1 17.238 3.43949 13.9205
672 672 2 1 17.238 15.8895 1.47054
673 673 2 1 17.238 15.8895 13.9205
674 674 2 1 17.1894 24.0613 6.78552
675 675 2 1 17.1894 24.0613 19.2355
676 676 2 1 17.1894 11.6113 6.78552
677 677 2 1 17.1894 11.6113 19.2355
678 678 2 1 16.9864 24.5298 13.3448
679 679 2 1 16.9864 24.5298 0.894771
680 680 2 1 16.9864 12.0798 13.3448
681 681 2 1 16.9864 12.0798 0.894771
682 682 2 1 16.9359 1.80419 7.01602
683 683 2 1 16.9359 1.80419 19.466
684 684 2 1 16.9359 14.2542 7.01602
685 685 2 1 16.9359 14.2542 19.466
686 686 2 1 16.8731 1.98135 13.6807
687 687 2 1 16.8731 1.98135 1.23073
688 688 2 1 16.8731 14.4314 13.6807
689 689 2 1 16.8731 14.4314 1.23073
690 690 2 1 1.67427 3.15355 5.42061
691 691 2 1 1.67427 3.15355 17.8706
692 692 2 1 1.67427 15.6036 5.42061
693 693 2 1 1.67427 15.6036 17.8706
694 694 2 1 16.7004 8.37208 2.27261
695 695 2 1 16.7004 8.37208 14.7226
696 696 2 1 16.7004 20.8221 2.27261
697 697 2 1 16.7004 20.8221 14.7226
698 698 2 1 1.65862 8.25593 23.191
699 699 2 1 1.65862 8.25593 10.741
700 700 2 1 1.65862 20.7059 23.191
701 701 2 1 1.65862 20.7059 10.741
702 702 2 1 16.5749 4.70992 4.19827
703 703 2 1 16.5749 4.70992 16.6483
704 704 2 1 16.5749 17.1599 4.19827
705 705 2 1 16.5749 17.1599 16.6483
706 706 2 1 16.4887 2.72181 9.52685
707 707 2 1 16.4887 2.72181 21.9768
708 708 2 1 16.4887 15.1718 9.52685
709 709 2 1 16.4887 15.1718 21.9768
710 710 2 1 16.4654 13.8298 5.54066
711 711 2 1 16.4654 13.8298 17.9907
712 712 2 1 16.4654 1.37981 5.54066
713 713 2 1 16.4654 1.37981 17.9907
714 714 2 1 16.4159 8.47643 23.653
715 715 2 1 16.4159 8.47643 11.203
716 716 2 1 16.4159 20.9264 23.653
717 717 2 1 16.4159 20.9264 11.203
718 718 2 1 16.3874 6.36608 13.6417
719 719 2 1 16.3874 6.36608 1.19169
720 720 2 1 16.3874 18.8161 13.6417
721 721 2 1 16.3874 18.8161 1.19169
722 722 2 1 16.1919 24.1619 4.29944
723 723 2 1 16.1919 24.1619 16.7494
724 724 2 1 16.1919 11.7119 4.29944
725 725 2 1 16.1919 11.7119 16.7494
726 726 2 1 16.0965 5.54818 7.91291
727 727 2 1 16.0965 5.54818 20.3629
728 728 2 1 16.0965 17.9982 7.91291
729 729 2 1 16.0965 17.9982 20.3629
730 730 2 1 16.0469 3.1173 8.01358
731 731 2 1 16.0469 3.1173 20.4636
732 732 2 1 16.0469 15.5673 8.01358
733 733 2 1 16.0469 15.5673 20.4636
734 734 2 1 16.0377 8.87654 13.4495
735 735 2 1 16.0377 8.87654 0.999482
736 736 2 1 16.0377 21.3265 13.4495
737 737 2 1 16.0377 21.3265 0.999482
738 738 2 1 15.8924 24.5907 9.18131
739 739 2 1 15.8924 24.5907 21.6313
740 740 2 1 15.8924 12.1407 9.18131
741 741 2 1 15.8924 12.1407 21.6313
742 742 2 1 15.8021 9.83634 23.9491
743 743 2 1 15.8021 9.83634 11.4991
744 744 2 1 15.8021 22.2863 23.9491
745 745 2 1 15.8021 22.2863 11.4991
746 746 2 1 15.4922 5.62081 12.7134
747 747 2 1 15.4922 5.62081 0.263426
748 748 2 1 15.4922 18.0708 12.7134
749 749 2 1 15.4922 18.0708 0.263426
750 750 2 1 1.53888 6.84659 8.81916
751 751 2 1 1.53888 6.84659 21.2692
752 752 2 1 1.53888 19.2966 8.81916
753 753 2 1 1.53888 19.2966 21.2692
754 754 2 1 15.2616 12.8155 2.18785
755 755 2 1 15.2616 12.8155 14.6378
756 756 2 1 15.2616 0.365489 2.18785
757 757 2 1 15.2616 0.365489 14.6378
758 758 2 1 15.1667 13.3109 8.73896
759 759 2 1 15.1667 13.3109 21.189
760 760 2 1 15.1667 0.860873 8.73896
761 761 2 1 15.1667 0.860873 21.189
762 762 2 1 15.0716 13.202 13.1106
763 763 2 1 15.0716 13.202 0.660599
764 764 2 1 15.0716 0.752013 13.1106
765 765 2 1 15.0716 0.752013 0.660599
766 766 2 1 1.48951 6.19317 6.70801
767 767 2 1 1.48951 6.19317 19.158
768 768 2 1 1.48951 18.6432 6.70801
769 769 2 1 1.48951 18.6432 19.158
770 770 2 1 14.8535 24.8049 4.84162
771 771 2 1 14.8535 24.8049 17.2916
772 772 2 1 14.8535 12.3549 4.84162
773 773 2 1 14.8535 12.3549 17.2916
774 774 2 1 14.8021 5.10806 3.09532
775 775 2 1 14.8021 5.10806 15.5453
776 776 2 1 14.8021 17.5581 3.09532
777 777 2 1 14.8021 17.5581 15.5453
778 778 2 1 14.4751 22.4868 2.32995
779 779 2 1 14.4751 22.4868 14.7799
780 780 2 1 14.4751 10.0368 2.32995
781 781 2 1 14.4751 10.0368 14.7799
782 782 2 1 14.4437 24.7254 7.03449
783 783 2 1 14.4437 24.7254 19.4845
784 784 2 1 14.4437 12.2754 7.03449
785 785 2 1 14.4437 12.2754 19.4845
786 786 2 1 14.4224 5.30522 4.53088
787 787 2 1 14.4224 5.30522 16.9809
788 788 2 1 14.4224 17.7552 4.53088
789 789 2 1 14.4224 17.7552 16.9809
790 790 2 1 14.4102 9.78623 5.49621
791 791 2 1 14.4102 9.78623 17.9462
792 792 2 1 14.4102 22.2362 5.49621
793 793 2 1 14.4102 22.2362 17.9462
794 794 2 1 14.3849 3.02448 9.39726
795 795 2 1 14.3849 3.02448 21.8473
796 796 2 1 14.3849 15.4745 9.39726
797 797 2 1 14.3849 15.4745 21.8473
798 798 2 1 14.3221 7.50789 2.57094
799 799 2 1 14.3221 7.50789 15.0209
800 800 2 1 14.3221 19.9579 2.57094
801 801 2 1 14.3221 19.9579 15.0209
802 802 2 1 14.3218 5.40766 9.05737
803 803 2 1 14.3218 5.40766 21.5074
804 804 2 1 14.3218 17.8577 9.05737
805 805 2 1 14.3218 17.8577 21.5074
806 806 2 1 14.1772 3.1684 2.59354
807 807 2 1 14.1772 3.1684 15.0435
808 808 2 1 14.1772 15.6184 2.59354
809 809 2 1 14.1772 15.6184 15.0435
810 810 2 1 14.1243 3.15355 5.42061
811 811 2 1 14.1243 3.15355 17.8706
812 812 2 1 14.1243 15.6036 5.42061
813 813 2 1 14.1243 15.6036 17.8706
814 814 2 1 14.1086 8.25593 23.191
815 815 2 1 14.1086 8.25593 10.741
816 816 2 1 14.1086 20.7059 23.191
817 817 2 1 14.1086 20.7059 10.741
818 818 2 1 1.4081 1.86837 6.29856
819 819 2 1 1.4081 1.86837 18.7486
820 820 2 1 1.4081 14.3184 6.29856
821 821 2 1 1.4081 14.3184 18.7486
822 822 2 1 13.9889 6.84659 8.81916
823 823 2 1 13.9889 6.84659 21.2692
824 824 2 1 13.9889 19.2966 8.81916
825 825 2 1 13.9889 19.2966 21.2692
826 826 2 1 13.9395 6.19317 6.70801
827 827 2 1 13.9395 6.19317 19.158
828 828 2 1 13.9395 18.6432 6.70801
829 829 2 1 13.9395 18.6432 19.158
830 830 2 1 13.8581 1.86837 6.29856
831 831 2 1 13.8581 1.86837 18.7486
832 832 2 1 13.8581 14.3184 6.29856
833 833 2 1 13.8581 14.3184 18.7486
834 834 2 1 13.7061 1.72802 23.8387
835 835 2 1 13.7061 1.72802 11.3887
836 836 2 1 13.7061 14.178 23.8387
837 837 2 1 13.7061 14.178 11.3887
838 838 2 1 13.4183 6.45388 1.96007
839 839 2 1 13.4183 6.45388 14.4101
840 840 2 1 13.4183 18.9039 1.96007
841 841 2 1 13.4183 18.9039 14.4101