Water

3072 atoms
2 atom types

0.0 31.80 xlo xhi
0.0 31.80 ylo yhi
0.0 31.80 zlo zhi

Masses

1 15.999
2  2.018

Atoms

1    1 5.69 12.75 11.65
2    1 15.55 15.11 7.03
3    1 17.43 6.18 8.56
4    1 11.35 7.03 7.17
5    1 17.55 6.07 2.31
6    1 7.68 11.44 10.23
7    1 8.5 7.98 18.23
8    1 6.85 10.12 6.65
9    1 6.86 11.61 18.03
10   1 3.35 14.35 10.61
11   1 14.6 15.05 13.39
12   1 4.38 3.92 14.99
13   1 16.03 4.47 7.37
14   1 2.31 17.13 4.83
15   1 11.27 13.41 16.9
16   1 2.4 10.91 8.86
17   1 6.2 17.86 14.39
18   1 6.06 9.64 1.23
19   1 15.94 1.14 14.8
20   1 18.42 17.67 3.59
21   1 0.27 15.96 1.17
22   1 16.89 9.22 6.12
23   1 16.41 11.08 4.32
24   1 1.13 7.37 15.97
25   1 6.13 13.65 7.26
26   1 12.93 12.28 14.23
27   1 8.09 0.04 5.02
28   1 15.25 9.99 1.9
29   1 11.87 17.92 16.16
30   1 14.66 14.17 9.53
31   1 16.67 17.14 5.72
32   1 5.98 7.29 2.7
33   1 12.81 3.45 9.44
34   1 15.76 16.62 3.07
35   1 8.07 6.05 14.65
36   1 13.94 4.69 16.74
37   1 9.73 8.9 15.72
38   1 9.91 4.1 12.42
39   1 10.41 7.01 4.29
40   1 1.3 18.21 15.71
41   1 8.65 3.48 1.95
42   1 17.19 5.85 18.31
43   1 13.62 11.44 5.45
44   1 5.5 1.96 8.85
45   1 10.08 14.56 4.77
46   1 17.95 10.66 8.73
47   1 12.27 15.5 15.06
48   1 3.21 9.43 2.42
49   1 14.58 7.35 7.28
50   1 4.61 12.66 17.27
51   1 11.11 17.76 2.37
52   1 16.32 13.77 0.81
53   1 4.64 17.43 3.23
54   1 14 1.07 4.26
55   1 9.4 16.98 9.04
56   1 3.82 7 4.8
57   1 15.47 2.22 17.29
58   1 6.14 1.22 1.17
59   1 7.81 2.64 17.49
60   1 8.88 15.14 11.95
61   1 13.51 5.9 14.33
62   1 8.03 14.02 9.24
63   1 9.22 5.03 8.99
64   1 5.39 0.64 5.12
65   1 14.34 11.88 0.41
66   1 2.97 0.35 1.71
67   1 9.35 2.36 4.8
68   1 10.76 6.83 14.64
69   1 12.27 15.7 7.93
70   1 4.59 11.52 7.41
71   1 12.71 17.97 5.91
72   1 10.32 5.49 0.16
73   1 5.61 2.22 11.47
74   1 8.66 4.54 6.42
75   1 10.17 0.39 7.53
76   1 14.29 11.73 8.67
77   1 14.66 5.9 9.92
78   1 18.57 8.33 3.77
79   1 4.88 13.85 1.74
80   1 16.64 12.8 6.57
81   1 13.9 5.75 0.78
82   1 5.27 2.56 3.28
83   1 17.54 12.23 15.88
84   1 10.64 13.47 13.4
85   1 15.92 16.29 16.25
86   1 11.11 11.95 11
87   1 16.38 10.99 10.79
88   1 9.15 0.89 14.02
89   1 9.8 11.16 17.19
90   1 7.05 10.5 3.68
91   1 4.1 8.13 12.51
92   1 12.74 3.86 12.62
93   1 0.64 15.64 13.31
94   1 3.67 11 5.01
95   1 5.66 5.37 8.65
96   1 12.52 13.48 3.88
97   1 12.72 14.45 11.42
98   1 15.82 6.39 4.72
99   1 3.54 15.1 13.29
100  1 4.02 7.51 15.98
101  1 15.87 7.79 16.7
102  1 10.13 1.05 17.7
103  1 5.04 0.5 17.4
104  1 5.73 8.7 10.29
105  1 13.6 8.62 10.45
106  1 12.09 5.25 2.75
107  1 0.37 13.1 12.82
108  1 7.32 6.34 10.64
109  1 17.28 9.35 18.54
110  1 16.22 3.67 3.74
111  1 10.23 7.66 9.66
112  1 9.8 15.73 17
113  1 18.59 15.18 16.05
114  1 3.5 8.98 18.04
115  1 15.4 2.74 1.25
116  1 13.03 8.38 0.42
117  1 10.68 13.33 8.49
118  1 3.19 8.1 9.49
119  1 3.39 5.09 10.06
120  1 11.38 3.8 16.78
121  1 11.6 2.07 14.77
122  1 5.04 15.68 9.1
123  1 10.02 7.96 12.38
124  1 0.4 5.44 11.14
125  1 1.89 5.2 17.22
126  1 13.69 9.5 16.6
127  1 8.15 5.72 3.25
128  1 16.57 6.04 12.06
129  1 6.71 4.64 12.69
130  1 9.3 16.78 14.65
131  1 4.73 5 1.91
132  1 1.59 11.37 14.66
133  1 13.47 10.59 12.34
134  1 13.02 8.55 3.09
135  1 17.59 17.47 11.54
136  1 12.52 17.31 11.28
137  1 0.83 12.58 10.22
138  1 6.88 16.62 17.16
139  1 9.03 0.86 1.33
140  1 17.26 1.35 5.23
141  1 13.88 15.73 4.77
142  1 12.8 9.27 6.72
143  1 8.3 12.73 14.22
144  1 6.72 16.16 1.54
145  1 16.5 17.2 13.94
146  1 18.41 1.75 9.63
147  1 11.94 16.12 0.31
148  1 8.22 10.02 13.72
149  1 9.16 9.1 2.91
150  1 15.04 16.07 0.44
151  1 3.72 12.88 14.9
152  1 16.14 12.92 12.89
153  1 10.39 10.98 6.96
154  1 10.14 2.36 9.71
155  1 5.9 14.87 4.91
156  1 17.09 3.85 13.81
157  1 2.55 13.48 2.9
158  1 6.72 2.03 14.89
159  1 14.4 8.56 13.98
160  1 11.83 13.35 1.19
161  1 6.13 8.42 14.31
162  1 14.93 17.67 9.59
163  1 7.16 5.65 17.08
164  1 14.5 12.2 16.33
165  1 3.9 17.41 15.6
166  1 16.74 8.83 12.54
167  1 12.25 3.25 4.49
168  1 5.94 7.45 6.52
169  1 17.77 3.42 16.42
170  1 17.3 9.34 15.17
171  1 8.59 13.74 0.16
172  1 6.61 17.9 9.53
173  1 14.08 18.51 17.2
174  1 8.59 9.56 8.61
175  1 10.83 9.84 0.87
176  1 18.61 15.69 8.51
177  1 0.79 12.4 6.53
178  1 6.72 13.91 16.24
179  1 4.28 4.24 5.2
180  1 17.05 14.87 11.04
181  1 3.17 5.47 12.8
182  1 8.12 15.86 6.87
183  1 14.24 2.14 11.12
184  1 10.01 0.34 11.54
185  1 7.7 13.3 3.01
186  1 6.18 15.67 12.84
187  1 13.52 0.52 1.68
188  1 13 4.53 6.91
189  1 15.93 2.21 8.82
190  1 0.39 10.77 3
191  1 8.75 16.46 3.37
192  1 5.69 12.75 30.27
193  1 15.55 15.11 25.65
194  1 17.43 6.18 27.18
195  1 11.35 7.03 25.79
196  1 17.55 6.07 20.93
197  1 7.68 11.44 28.85
198  1 6.85 10.12 25.27
199  1 3.35 14.35 29.23
200  1 2.31 17.13 23.45
201  1 2.4 10.91 27.48
202  1 6.06 9.64 19.85
203  1 18.42 17.67 22.21
204  1 16.89 9.22 24.74
205  1 16.41 11.08 22.94
206  1 6.13 13.65 25.88
207  1 8.09 0.04 23.64
208  1 15.25 9.99 20.52
209  1 14.66 14.17 28.15
210  1 16.67 17.14 24.34
211  1 5.98 7.29 21.32
212  1 12.81 3.45 28.06
213  1 15.76 16.62 21.69
214  1 10.41 7.01 22.91
215  1 8.65 3.48 20.57
216  1 13.62 11.44 24.07
217  1 5.5 1.96 27.47
218  1 10.08 14.56 23.39
219  1 17.95 10.66 27.35
220  1 3.21 9.43 21.04
221  1 14.58 7.35 25.9
222  1 11.11 17.76 20.99
223  1 16.32 13.77 19.43
224  1 4.64 17.43 21.85
225  1 14 1.07 22.88
226  1 9.4 16.98 27.66
227  1 3.82 7 23.42
228  1 6.14 1.22 19.79
229  1 8.03 14.02 27.86
230  1 9.22 5.03 27.61
231  1 5.39 0.64 23.74
232  1 14.34 11.88 19.03
233  1 2.97 0.35 20.33
234  1 9.35 2.36 23.42
235  1 12.27 15.7 26.55
236  1 4.59 11.52 26.03
237  1 12.71 17.97 24.53
238  1 10.32 5.49 18.78
239  1 5.61 2.22 30.09
240  1 8.66 4.54 25.04
241  1 10.17 0.39 26.15
242  1 14.29 11.73 27.29
243  1 14.66 5.9 28.54
244  1 18.57 8.33 22.39
245  1 4.88 13.85 20.36
246  1 16.64 12.8 25.19
247  1 13.9 5.75 19.4
248  1 5.27 2.56 21.9
249  1 11.11 11.95 29.62
250  1 16.38 10.99 29.41
251  1 7.05 10.5 22.3
252  1 4.1 8.13 31.13
253  1 12.74 3.86 31.24
254  1 3.67 11 23.63
255  1 5.66 5.37 27.27
256  1 12.52 13.48 22.5
257  1 12.72 14.45 30.04
258  1 15.82 6.39 23.34
259  1 3.54 15.1 0.11
260  1 5.73 8.7 28.91
261  1 13.6 8.62 29.07
262  1 12.09 5.25 21.37
263  1 0.37 13.1 31.44
264  1 7.32 6.34 29.26
265  1 16.22 3.67 22.36
266  1 10.23 7.66 28.28
267  1 15.4 2.74 19.87
268  1 13.03 8.38 19.04
269  1 10.68 13.33 27.11
270  1 3.19 8.1 28.11
271  1 3.39 5.09 28.68
272  1 11.6 2.07 1.59
273  1 5.04 15.68 27.72
274  1 10.02 7.96 31
275  1 0.4 5.44 29.76
276  1 8.15 5.72 21.87
277  1 16.57 6.04 30.68
278  1 6.71 4.64 31.31
279  1 9.3 16.78 1.47
280  1 4.73 5 20.53
281  1 13.47 10.59 30.96
282  1 13.02 8.55 21.71
283  1 17.59 17.47 30.16
284  1 12.52 17.31 29.9
285  1 0.83 12.58 28.84
286  1 17.26 1.35 23.85
287  1 13.88 15.73 23.39
288  1 12.8 9.27 25.34
289  1 6.72 16.16 20.16
290  1 16.5 17.2 0.76
291  1 18.41 1.75 28.25
292  1 11.94 16.12 18.93
293  1 8.22 10.02 0.54
294  1 9.16 9.1 21.53
295  1 15.04 16.07 19.06
296  1 10.39 10.98 25.58
297  1 10.14 2.36 28.33
298  1 5.9 14.87 23.53
299  1 17.09 3.85 0.63
300  1 2.55 13.48 21.52
301  1 0.75 3.45 18.95
302  1 11.83 13.35 19.81
303  1 14.93 17.67 28.21
304  1 16.74 8.83 31.16
305  1 12.25 3.25 23.11
306  1 5.94 7.45 25.14
307  1 17.3 9.34 1.99
308  1 8.59 13.74 18.78
309  1 6.61 17.9 28.15
310  1 8.59 9.56 27.23
311  1 10.83 9.84 19.49
312  1 18.61 15.69 27.13
313  1 0.79 12.4 25.15
314  1 4.28 4.24 23.82
315  1 17.05 14.87 29.66
316  1 8.12 15.86 25.49
317  1 14.24 2.14 29.74
318  1 10.01 0.34 30.16
319  1 7.7 13.3 21.63
320  1 13.52 0.52 20.3
321  1 13 4.53 25.53
322  1 15.93 2.21 27.44
323  1 0.39 10.77 21.62
324  1 8.75 16.46 21.99
325  1 17.43 24.8 8.56
326  1 11.35 25.65 7.17
327  1 17.55 24.69 2.31
328  1 7.68 30.06 10.23
329  1 8.5 26.6 18.23
330  1 6.85 28.74 6.65
331  1 6.86 30.23 18.03
332  1 3.35 1.17 10.61
333  1 4.38 22.54 14.99
334  1 16.03 23.09 7.37
335  1 2.4 29.53 8.86
336  1 6.06 28.26 1.23
337  1 15.94 19.76 14.8
338  1 16.89 27.84 6.12
339  1 16.41 29.7 4.32
340  1 1.13 25.99 15.97
341  1 12.93 30.9 14.23
342  1 8.09 18.66 5.02
343  1 15.25 28.61 1.9
344  1 5.98 25.91 2.7
345  1 12.81 22.07 9.44
346  1 8.07 24.67 14.65
347  1 13.94 23.31 16.74
348  1 9.73 27.52 15.72
349  1 9.91 22.72 12.42
350  1 10.41 25.63 4.29
351  1 8.65 22.1 1.95
352  1 17.19 24.47 18.31
353  1 13.62 30.06 5.45
354  1 5.5 20.58 8.85
355  1 17.95 29.28 8.73
356  1 3.21 28.05 2.42
357  1 14.58 25.97 7.28
358  1 14 19.69 4.26
359  1 3.82 25.62 4.8
360  1 15.47 20.84 17.29
361  1 6.14 19.84 1.17
362  1 7.81 21.26 17.49
363  1 13.51 24.52 14.33
364  1 8.03 0.84 9.24
365  1 9.22 23.65 8.99
366  1 5.39 19.26 5.12
367  1 2.97 18.97 1.71
368  1 9.35 20.98 4.8
369  1 10.76 25.45 14.64
370  1 4.59 30.14 7.41
371  1 10.32 24.11 0.16
372  1 5.61 20.84 11.47
373  1 8.66 23.16 6.42
374  1 10.17 19.01 7.53
375  1 14.29 30.35 8.67
376  1 14.66 24.52 9.92
377  1 18.57 26.95 3.77
378  1 13.9 24.37 0.78
379  1 5.27 21.18 3.28
380  1 17.54 30.85 15.88
381  1 16.38 29.61 10.79
382  1 9.15 19.51 14.02
383  1 9.8 29.78 17.19
384  1 7.05 29.12 3.68
385  1 4.1 26.75 12.51
386  1 12.74 22.48 12.62
387  1 3.67 29.62 5.01
388  1 5.66 23.99 8.65
389  1 15.82 25.01 4.72
390  1 4.02 26.13 15.98
391  1 15.87 26.41 16.7
392  1 10.13 19.67 17.7
393  1 5.04 19.12 17.4
394  1 5.73 27.32 10.29
395  1 13.6 27.24 10.45
396  1 12.09 23.87 2.75
397  1 0.37 31.72 12.82
398  1 7.32 24.96 10.64
399  1 17.28 27.97 18.54
400  1 3.07 19.25 6.18
401  1 16.22 22.29 3.74
402  1 10.23 26.28 9.66
403  1 3.5 27.6 18.04
404  1 15.4 21.36 1.25
405  1 13.03 27 0.42
406  1 3.19 26.72 9.49
407  1 3.39 23.71 10.06
408  1 11.38 22.42 16.78
409  1 11.6 20.69 14.77
410  1 10.02 26.58 12.38
411  1 0.4 24.06 11.14
412  1 1.89 23.82 17.22
413  1 13.69 28.12 16.6
414  1 8.15 24.34 3.25
415  1 16.57 24.66 12.06
416  1 6.71 23.26 12.69
417  1 4.73 23.62 1.91
418  1 1.59 29.99 14.66
419  1 13.47 29.21 12.34
420  1 13.02 27.17 3.09
421  1 0.83 31.2 10.22
422  1 9.03 19.48 1.33
423  1 17.26 19.97 5.23
424  1 12.8 27.89 6.72
425  1 18.41 20.37 9.63
426  1 2.63 21.88 7.2
427  1 8.22 28.64 13.72
428  1 9.16 27.72 2.91
429  1 3.72 31.5 14.9
430  1 16.14 31.54 12.89
431  1 10.39 29.6 6.96
432  1 10.14 20.98 9.71
433  1 17.09 22.47 13.81
434  1 6.72 20.65 14.89
435  1 14.4 27.18 13.98
436  1 0.72 20.28 3.18
437  1 6.13 27.04 14.31
438  1 7.16 24.27 17.08
439  1 14.5 30.82 16.33
440  1 16.74 27.45 12.54
441  1 12.25 21.87 4.49
442  1 5.94 26.07 6.52
443  1 17.77 22.04 16.42
444  1 17.3 27.96 15.17
445  1 8.59 28.18 8.61
446  1 10.83 28.46 0.87
447  1 0.79 31.02 6.53
448  1 18.24 20.54 12.27
449  1 4.28 22.86 5.2
450  1 3.17 24.09 12.8
451  1 14.24 20.76 11.12
452  1 10.01 18.96 11.54
453  1 7.7 0.12 3.01
454  1 13.52 19.14 1.68
455  1 13 23.15 6.91
456  1 15.93 20.83 8.82
457  1 0.39 29.39 3
458  1 17.43 24.8 27.18
459  1 11.35 25.65 25.79
460  1 17.55 24.69 20.93
461  1 7.68 30.06 28.85
462  1 6.85 28.74 25.27
463  1 3.35 1.17 29.23
464  1 16.03 23.09 25.99
465  1 2.4 29.53 27.48
466  1 6.06 28.26 19.85
467  1 16.89 27.84 24.74
468  1 16.41 29.7 22.94
469  1 8.09 18.66 23.64
470  1 15.25 28.61 20.52
471  1 5.98 25.91 21.32
472  1 12.81 22.07 28.06
473  1 10.41 25.63 22.91
474  1 8.65 22.1 20.57
475  1 13.62 30.06 24.07
476  1 5.5 20.58 27.47
477  1 17.95 29.28 27.35
478  1 3.21 28.05 21.04
479  1 14.58 25.97 25.9
480  1 14 19.69 22.88
481  1 3.82 25.62 23.42
482  1 6.14 19.84 19.79
483  1 8.03 0.84 27.86
484  1 9.22 23.65 27.61
485  1 5.39 19.26 23.74
486  1 2.97 18.97 20.33
487  1 9.35 20.98 23.42
488  1 4.59 30.14 26.03
489  1 10.32 24.11 18.78
490  1 5.61 20.84 30.09
491  1 8.66 23.16 25.04
492  1 10.17 19.01 26.15
493  1 14.29 30.35 27.29
494  1 14.66 24.52 28.54
495  1 18.57 26.95 22.39
496  1 13.9 24.37 19.4
497  1 5.27 21.18 21.9
498  1 16.38 29.61 29.41
499  1 7.05 29.12 22.3
500  1 4.1 26.75 31.13
501  1 12.74 22.48 31.24
502  1 3.67 29.62 23.63
503  1 5.66 23.99 27.27
504  1 15.82 25.01 23.34
505  1 5.73 27.32 28.91
506  1 13.6 27.24 29.07
507  1 12.09 23.87 21.37
508  1 0.37 31.72 31.44
509  1 7.32 24.96 29.26
510  1 3.07 19.25 24.8
511  1 16.22 22.29 22.36
512  1 10.23 26.28 28.28
513  1 15.4 21.36 19.87
514  1 13.03 27 19.04
515  1 3.19 26.72 28.11
516  1 3.39 23.71 28.68
517  1 11.6 20.69 1.59
518  1 10.02 26.58 31
519  1 0.4 24.06 29.76
520  1 8.15 24.34 21.87
521  1 16.57 24.66 30.68
522  1 6.71 23.26 31.31
523  1 4.73 23.62 20.53
524  1 13.47 29.21 30.96
525  1 13.02 27.17 21.71
526  1 0.83 31.2 28.84
527  1 9.03 19.48 19.95
528  1 17.26 19.97 23.85
529  1 12.8 27.89 25.34
530  1 18.41 20.37 28.25
531  1 2.63 21.88 25.82
532  1 8.22 28.64 0.54
533  1 9.16 27.72 21.53
534  1 16.14 31.54 31.51
535  1 10.39 29.6 25.58
536  1 10.14 20.98 28.33
537  1 17.09 22.47 0.63
538  1 0.75 22.07 18.95
539  1 0.72 20.28 21.8
540  1 16.74 27.45 31.16
541  1 12.25 21.87 23.11
542  1 5.94 26.07 25.14
543  1 17.3 27.96 1.99
544  1 8.59 28.18 27.23
545  1 10.83 28.46 19.49
546  1 0.79 31.02 25.15
547  1 18.24 20.54 30.89
548  1 4.28 22.86 23.82
549  1 14.24 20.76 29.74
550  1 10.01 18.96 30.16
551  1 7.7 0.12 21.63
552  1 13.52 19.14 20.3
553  1 13 23.15 25.53
554  1 15.93 20.83 27.44
555  1 0.39 29.39 21.62
556  1 20.92 6.28 1.13
557  1 20.87 2.75 9.96
558  1 18.81 3.68 6.47
559  1 24.31 12.75 11.65
560  1 29.97 7.03 7.17
561  1 26.3 11.44 10.23
562  1 27.12 7.98 18.23
563  1 25.47 10.12 6.65
564  1 25.48 11.61 18.03
565  1 21.97 14.35 10.61
566  1 23 3.92 14.99
567  1 20.93 17.13 4.83
568  1 29.89 13.41 16.9
569  1 20.92 14.34 5.38
570  1 21.02 10.91 8.86
571  1 24.82 17.86 14.39
572  1 24.68 9.64 1.23
573  1 19.84 6.43 5.63
574  1 18.89 15.96 1.17
575  1 19.75 7.37 15.97
576  1 24.75 13.65 7.26
577  1 26.71 0.04 5.02
578  1 20.59 9.76 12.64
579  1 30.49 17.92 16.16
580  1 21.79 2.51 18.01
581  1 24.6 7.29 2.7
582  1 31.43 3.45 9.44
583  1 26.69 6.05 14.65
584  1 28.35 8.9 15.72
585  1 28.53 4.1 12.42
586  1 29.03 7.01 4.29
587  1 19.38 8.11 7.89
588  1 19.92 18.21 15.71
589  1 27.27 3.48 1.95
590  1 24.12 1.96 8.85
591  1 28.7 14.56 4.77
592  1 22.13 18.01 8.53
593  1 30.89 15.5 15.06
594  1 21.83 9.43 2.42
595  1 1.4 7.35 7.28
596  1 23.23 12.66 17.27
597  1 29.73 17.76 2.37
598  1 20.64 2.85 14.98
599  1 23.26 17.43 3.23
600  1 21.11 17.85 12.41
601  1 28.02 16.98 9.04
602  1 22.44 7 4.8
603  1 2.29 2.22 17.29
604  1 24.76 1.22 1.17
605  1 26.43 2.64 17.49
606  1 27.5 15.14 11.95
607  1 26.65 14.02 9.24
608  1 27.84 5.03 8.99
609  1 24.01 0.64 5.12
610  1 21.59 0.35 1.71
611  1 27.97 2.36 4.8
612  1 29.38 6.83 14.64
613  1 30.89 15.7 7.93
614  1 23.21 11.52 7.41
615  1 31.33 17.97 5.91
616  1 28.94 5.49 0.16
617  1 19.4 5.56 13.86
618  1 24.23 2.22 11.47
619  1 27.28 4.54 6.42
620  1 28.79 0.39 7.53
621  1 23.5 13.85 1.74
622  1 0.72 5.75 0.78
623  1 23.89 2.56 3.28
624  1 29.26 13.47 13.4
625  1 29.73 11.95 11
626  1 27.77 0.89 14.02
627  1 28.42 11.16 17.19
628  1 25.67 10.5 3.68
629  1 22.72 8.13 12.51
630  1 31.36 3.86 12.62
631  1 19.26 15.64 13.31
632  1 22.29 11 5.01
633  1 24.28 5.37 8.65
634  1 31.14 13.48 3.88
635  1 22.16 15.1 13.29
636  1 22.64 7.51 15.98
637  1 28.75 1.05 17.7
638  1 23.66 0.5 17.4
639  1 24.35 8.7 10.29
640  1 0.42 8.62 10.45
641  1 30.71 5.25 2.75
642  1 21.69 2.13 12.31
643  1 18.99 13.1 12.82
644  1 25.94 6.34 10.64
645  1 21.69 0.63 6.18
646  1 28.85 7.66 9.66
647  1 28.42 15.73 17
648  1 22.12 8.98 18.04
649  1 29.3 13.33 8.49
650  1 21.81 8.1 9.49
651  1 22.01 5.09 10.06
652  1 30 3.8 16.78
653  1 30.22 2.07 14.77
654  1 18.7 13.26 2
655  1 19.5 18.01 9.27
656  1 23.66 15.68 9.1
657  1 28.64 7.96 12.38
658  1 19.02 5.44 11.14
659  1 20.51 5.2 17.22
660  1 26.77 5.72 3.25
661  1 21.14 15.64 17.44
662  1 25.33 4.64 12.69
663  1 27.92 16.78 14.65
664  1 23.35 5 1.91
665  1 20.21 11.37 14.66
666  1 0.29 10.59 12.34
667  1 31.14 17.31 11.28
668  1 19.45 12.58 10.22
669  1 25.5 16.62 17.16
670  1 27.65 0.86 1.33
671  1 0.7 15.73 4.77
672  1 19.92 17.94 18.51
673  1 31.42 9.27 6.72
674  1 26.92 12.73 14.22
675  1 25.34 16.16 1.54
676  1 21.25 3.26 7.2
677  1 30.56 16.12 0.31
678  1 26.84 10.02 13.72
679  1 27.78 9.1 2.91
680  1 22.34 12.88 14.9
681  1 29.01 10.98 6.96
682  1 28.76 2.36 9.71
683  1 24.52 14.87 4.91
684  1 21.17 13.48 2.9
685  1 19.67 10.13 17.26
686  1 25.34 2.03 14.89
687  1 1.22 8.56 13.98
688  1 19.34 1.66 3.18
689  1 30.45 13.35 1.19
690  1 24.75 8.42 14.31
691  1 1.75 17.67 9.59
692  1 25.78 5.65 17.08
693  1 22.52 17.41 15.6
694  1 30.87 3.25 4.49
695  1 24.56 7.45 6.52
696  1 27.21 13.74 0.16
697  1 25.23 17.9 9.53
698  1 27.21 9.56 8.61
699  1 29.45 9.84 0.87
700  1 20.83 13.14 18.44
701  1 19.41 12.4 6.53
702  1 25.34 13.91 16.24
703  1 22.9 4.24 5.2
704  1 21.79 5.47 12.8
705  1 26.74 15.86 6.87
706  1 1.06 2.14 11.12
707  1 28.63 0.34 11.54
708  1 26.32 13.3 3.01
709  1 24.8 15.67 12.84
710  1 31.62 4.53 6.91
711  1 19.01 10.77 3
712  1 27.37 16.46 3.37
713  1 20.92 6.28 19.75
714  1 20.87 2.75 28.58
715  1 18.81 3.68 25.09
716  1 24.31 12.75 30.27
717  1 29.97 7.03 25.79
718  1 26.3 11.44 28.85
719  1 25.47 10.12 25.27
720  1 21.97 14.35 29.23
721  1 20.93 17.13 23.45
722  1 20.92 14.34 24
723  1 21.02 10.91 27.48
724  1 24.68 9.64 19.85
725  1 19.84 6.43 24.25
726  1 18.89 15.96 19.79
727  1 24.75 13.65 25.88
728  1 26.71 0.04 23.64
729  1 20.59 9.76 31.26
730  1 24.6 7.29 21.32
731  1 31.43 3.45 28.06
732  1 29.03 7.01 22.91
733  1 19.38 8.11 26.51
734  1 27.27 3.48 20.57
735  1 24.12 1.96 27.47
736  1 28.7 14.56 23.39
737  1 22.13 18.01 27.15
738  1 21.83 9.43 21.04
739  1 1.4 7.35 25.9
740  1 29.73 17.76 20.99
741  1 23.26 17.43 21.85
742  1 21.11 17.85 31.03
743  1 28.02 16.98 27.66
744  1 22.44 7 23.42
745  1 24.76 1.22 19.79
746  1 26.65 14.02 27.86
747  1 27.84 5.03 27.61
748  1 24.01 0.64 23.74
749  1 1.16 11.88 19.03
750  1 21.59 0.35 20.33
751  1 27.97 2.36 23.42
752  1 30.89 15.7 26.55
753  1 23.21 11.52 26.03
754  1 31.33 17.97 24.53
755  1 28.94 5.49 18.78
756  1 24.23 2.22 30.09
757  1 27.28 4.54 25.04
758  1 28.79 0.39 26.15
759  1 23.5 13.85 20.36
760  1 0.72 5.75 19.4
761  1 23.89 2.56 21.9
762  1 29.73 11.95 29.62
763  1 25.67 10.5 22.3
764  1 22.72 8.13 31.13
765  1 31.36 3.86 31.24
766  1 22.29 11 23.63
767  1 24.28 5.37 27.27
768  1 31.14 13.48 22.5
769  1 22.16 15.1 0.11
770  1 24.35 8.7 28.91
771  1 0.42 8.62 29.07
772  1 30.71 5.25 21.37
773  1 21.69 2.13 30.93
774  1 18.99 13.1 31.44
775  1 25.94 6.34 29.26
776  1 21.69 0.63 24.8
777  1 28.85 7.66 28.28
778  1 2.22 2.74 19.87
779  1 31.65 8.38 19.04
780  1 29.3 13.33 27.11
781  1 21.81 8.1 28.11
782  1 22.01 5.09 28.68
783  1 30.22 2.07 1.59
784  1 18.7 13.26 20.62
785  1 19.5 18.01 27.89
786  1 23.66 15.68 27.72
787  1 28.64 7.96 31
788  1 19.02 5.44 29.76
789  1 26.77 5.72 21.87
790  1 25.33 4.64 31.31
791  1 27.92 16.78 1.47
792  1 23.35 5 20.53
793  1 0.29 10.59 30.96
794  1 31.14 17.31 29.9
795  1 19.45 12.58 28.84
796  1 0.7 15.73 23.39
797  1 31.42 9.27 25.34
798  1 25.34 16.16 20.16
799  1 21.25 3.26 25.82
800  1 30.56 16.12 18.93
801  1 26.84 10.02 0.54
802  1 27.78 9.1 21.53
803  1 1.86 16.07 19.06
804  1 29.01 10.98 25.58
805  1 28.76 2.36 28.33
806  1 24.52 14.87 23.53
807  1 21.17 13.48 21.52
808  1 19.37 3.45 18.95
809  1 1.22 8.56 0.8
810  1 19.34 1.66 21.8
811  1 30.45 13.35 19.81
812  1 1.75 17.67 28.21
813  1 30.87 3.25 23.11
814  1 24.56 7.45 25.14
815  1 27.21 13.74 18.78
816  1 25.23 17.9 28.15
817  1 27.21 9.56 27.23
818  1 29.45 9.84 19.49
819  1 19.41 12.4 25.15
820  1 22.9 4.24 23.82
821  1 26.74 15.86 25.49
822  1 1.06 2.14 29.74
823  1 28.63 0.34 30.16
824  1 26.32 13.3 21.63
825  1 31.62 4.53 25.53
826  1 19.01 10.77 21.62
827  1 27.37 16.46 21.99
828  1 20.92 24.9 1.13
829  1 20.87 21.37 9.96
830  1 18.81 22.3 6.47
831  1 2.37 1.93 7.03
832  1 29.97 25.65 7.17
833  1 26.3 30.06 10.23
834  1 27.12 26.6 18.23
835  1 25.47 28.74 6.65
836  1 25.48 30.23 18.03
837  1 21.97 1.17 10.61
838  1 23 22.54 14.99
839  1 21.02 29.53 8.86
840  1 24.68 28.26 1.23
841  1 19.84 25.05 5.63
842  1 19.75 25.99 15.97
843  1 26.71 18.66 5.02
844  1 20.59 28.38 12.64
845  1 21.79 21.13 18.01
846  1 24.6 25.91 2.7
847  1 31.43 22.07 9.44
848  1 26.69 24.67 14.65
849  1 28.35 27.52 15.72
850  1 28.53 22.72 12.42
851  1 29.03 25.63 4.29
852  1 19.38 26.73 7.89
853  1 27.27 22.1 1.95
854  1 24.12 20.58 8.85
855  1 21.83 28.05 2.42
856  1 1.4 25.97 7.28
857  1 20.64 21.47 14.98
858  1 22.44 25.62 4.8
859  1 2.29 20.84 17.29
860  1 24.76 19.84 1.17
861  1 26.43 21.26 17.49
862  1 26.65 0.84 9.24
863  1 27.84 23.65 8.99
864  1 24.01 19.26 5.12
865  1 21.59 18.97 1.71
866  1 27.97 20.98 4.8
867  1 29.38 25.45 14.64
868  1 23.21 30.14 7.41
869  1 28.94 24.11 0.16
870  1 19.4 24.18 13.86
871  1 24.23 20.84 11.47
872  1 27.28 23.16 6.42
873  1 28.79 19.01 7.53
874  1 0.72 24.37 0.78
875  1 23.89 21.18 3.28
876  1 27.77 19.51 14.02
877  1 28.42 29.78 17.19
878  1 25.67 29.12 3.68
879  1 22.72 26.75 12.51
880  1 31.36 22.48 12.62
881  1 22.29 29.62 5.01
882  1 24.28 23.99 8.65
883  1 31.14 0.3 3.88
884  1 22.64 26.13 15.98
885  1 28.75 19.67 17.7
886  1 23.66 19.12 17.4
887  1 24.35 27.32 10.29
888  1 0.42 27.24 10.45
889  1 30.71 23.87 2.75
890  1 21.69 20.75 12.31
891  1 18.99 31.72 12.82
892  1 25.94 24.96 10.64
893  1 21.69 19.25 6.18
894  1 28.85 26.28 9.66
895  1 22.12 27.6 18.04
896  1 21.81 26.72 9.49
897  1 22.01 23.71 10.06
898  1 23.73 22.77 18.08
899  1 30 22.42 16.78
900  1 30.22 20.69 14.77
901  1 18.7 0.08 2
902  1 28.64 26.58 12.38
903  1 19.02 24.06 11.14
904  1 20.51 23.82 17.22
905  1 26.77 24.34 3.25
906  1 25.33 23.26 12.69
907  1 23.35 23.62 1.91
908  1 20.21 29.99 14.66
909  1 0.29 29.21 12.34
910  1 19.45 31.2 10.22
911  1 27.65 19.48 1.33
912  1 31.42 27.89 6.72
913  1 21.25 21.88 7.2
914  1 26.84 28.64 13.72
915  1 27.78 27.72 2.91
916  1 22.34 31.5 14.9
917  1 29.01 29.6 6.96
918  1 28.76 20.98 9.71
919  1 19.67 28.75 17.26
920  1 25.34 20.65 14.89
921  1 1.22 27.18 13.98
922  1 19.34 20.28 3.18
923  1 30.45 0.17 1.19
924  1 24.75 27.04 14.31
925  1 25.78 24.27 17.08
926  1 1.32 30.82 16.33
927  1 30.87 21.87 4.49
928  1 24.56 26.07 6.52
929  1 27.21 28.18 8.61
930  1 29.45 28.46 0.87
931  1 19.41 31.02 6.53
932  1 22.9 22.86 5.2
933  1 21.79 24.09 12.8
934  1 1.06 20.76 11.12
935  1 28.63 18.96 11.54
936  1 26.32 0.12 3.01
937  1 0.34 19.14 1.68
938  1 31.62 23.15 6.91
939  1 19.01 29.39 3
940  1 20.92 24.9 19.75
941  1 20.87 21.37 28.58
942  1 18.81 22.3 25.09
943  1 2.37 1.93 25.65
944  1 29.97 25.65 25.79
945  1 26.3 30.06 28.85
946  1 25.47 28.74 25.27
947  1 21.97 1.17 29.23
948  1 21.02 29.53 27.48
949  1 24.68 28.26 19.85
950  1 19.84 25.05 24.25
951  1 26.71 18.66 23.64
952  1 20.59 28.38 31.26
953  1 24.6 25.91 21.32
954  1 31.43 22.07 28.06
955  1 29.03 25.63 22.91
956  1 19.38 26.73 26.51
957  1 27.27 22.1 20.57
958  1 24.12 20.58 27.47
959  1 21.83 28.05 21.04
960  1 1.4 25.97 25.9
961  1 22.44 25.62 23.42
962  1 24.76 19.84 19.79
963  1 26.65 0.84 27.86
964  1 27.84 23.65 27.61
965  1 24.01 19.26 23.74
966  1 1.16 30.5 19.03
967  1 21.59 18.97 20.33
968  1 27.97 20.98 23.42
969  1 23.21 30.14 26.03
970  1 28.94 24.11 18.78
971  1 24.23 20.84 30.09
972  1 27.28 23.16 25.04
973  1 28.79 19.01 26.15
974  1 0.72 24.37 19.4
975  1 23.89 21.18 21.9
976  1 25.67 29.12 22.3
977  1 22.72 26.75 31.13
978  1 31.36 22.48 31.24
979  1 22.29 29.62 23.63
980  1 24.28 23.99 27.27
981  1 31.14 0.3 22.5
982  1 24.35 27.32 28.91
983  1 0.42 27.24 29.07
984  1 30.71 23.87 21.37
985  1 21.69 20.75 30.93
986  1 18.99 31.72 31.44
987  1 25.94 24.96 29.26
988  1 21.69 19.25 24.8
989  1 28.85 26.28 28.28
990  1 2.22 21.36 19.87
991  1 31.65 27 19.04
992  1 21.81 26.72 28.11
993  1 22.01 23.71 28.68
994  1 30.22 20.69 1.59
995  1 18.7 0.08 20.62
996  1 28.64 26.58 31
997  1 19.02 24.06 29.76
998  1 26.77 24.34 21.87
999  1 25.33 23.26 31.31
1000 1 23.35 23.62 20.53
1001 1 0.29 29.21 30.96
1002 1 19.45 31.2 28.84
1003 1 31.42 27.89 25.34
1004 1 21.25 21.88 25.82
1005 1 26.84 28.64 0.54
1006 1 27.78 27.72 21.53
1007 1 29.01 29.6 25.58
1008 1 28.76 20.98 28.33
1009 1 19.37 22.07 18.95
1010 1 1.22 27.18 0.8
1011 1 19.34 20.28 21.8
1012 1 30.45 0.17 19.81
1013 1 30.87 21.87 23.11
1014 1 24.56 26.07 25.14
1015 1 27.21 28.18 27.23
1016 1 29.45 28.46 19.49
1017 1 19.41 31.02 25.15
1018 1 22.9 22.86 23.82
1019 1 1.06 20.76 29.74
1020 1 28.63 18.96 30.16
1021 1 26.32 0.12 21.63
1022 1 0.34 19.14 20.3
1023 1 31.62 23.15 25.53
1024 1 19.01 29.39 21.62
1025 2 4.76 12.68 11.28
1026 2 5.8 13.64 12.09
1027 2 14.98 14.95 7.84
1028 2 14.96 15.21 6.23
1029 2 17.76 7.12 8.56
1030 2 17.94 5.64 9.22
1031 2 11.92 7.81 6.92
1032 2 10.75 7.29 7.93
1033 2 17.43 5.94 1.32
1034 2 17.25 5.26 2.8
1035 2 6.9 11.61 10.83
1036 2 8.02 12.31 9.87
1037 2 8.46 8.74 18.88
1038 2 8.72 8.34 17.32
1039 2 7.54 9.96 7.35
1040 2 6.12 10.69 7.03
1041 2 7.46 12.4 18.17
1042 2 6 11.92 17.62
1043 2 2.57 14.04 10.08
1044 2 3.93 14.93 10.04
1045 2 14.84 15.99 13.65
1046 2 14.44 14.51 14.21
1047 2 5.2 3.36 15.08
1048 2 3.57 3.34 15.03
1049 2 15.29 4.93 6.87
1050 2 16.54 5.15 7.9
1051 2 2.65 17.9 5.37
1052 2 2.75 17.13 3.93
1053 2 11.74 13.41 17.78
1054 2 10.79 12.54 16.79
1055 2 2.54 10.07 9.38
1056 2 1.85 11.55 9.41
1057 2 5.28 17.69 14.74
1058 2 6.48 18.78 14.65
1059 2 6.13 10.48 0.69
1060 2 6.52 9.77 2.11
1061 2 15.76 1.81 14.08
1062 2 15.91 1.6 15.69
1063 2 18.96 17.38 4.39
1064 2 18.72 18.57 3.3
1065 2 0.08 15 1.38
1066 2 -0.06 16.54 1.92
1067 2 17.84 8.93 6.2
1068 2 16.81 9.87 5.37
1069 2 17.27 11.1 3.8
1070 2 16.55 11.55 5.2
1071 2 2.01 7.24 16.42
1072 2 1 8.34 15.75
1073 2 5.64 12.78 7.35
1074 2 5.9 14.08 6.39
1075 2 13.3 11.55 13.65
1076 2 13.45 12.33 15.08
1077 2 8.49 0.95 4.93
1078 2 7.09 0.12 5.08
1079 2 14.62 9.23 2.03
1080 2 15.73 10.17 2.76
1081 2 12.11 18.52 15.4
1082 2 11.94 16.97 15.86
1083 2 14.07 14.23 10.33
1084 2 14.51 13.29 9.07
1085 2 16.26 16.91 4.84
1086 2 16.49 16.4 6.37
1087 2 6.22 7.98 2.02
1088 2 5.2 7.62 3.24
1089 2 11.95 2.95 9.31
1090 2 13.43 2.91 10
1091 2 16.65 17.08 3.1
1092 2 15.55 16.38 2.12
1093 2 7.6 6.02 15.54
1094 2 7.56 5.5 13.99
1095 2 13.74 5.12 17.62
1096 2 14.72 4.07 16.83
1097 2 10.19 8.06 15.43
1098 2 9.17 9.24 14.97
1099 2 9.14 4.44 12.96
1100 2 9.57 3.59 11.63
1101 2 10.67 6.97 5.25
1102 2 9.56 6.5 4.15
1103 2 1.2 18.06 16.7
1104 2 0.44 18.57 15.35
1105 2 9.24 4.11 1.46
1106 2 8.84 2.54 1.66
1107 2 16.93 6.74 17.95
1108 2 17.17 5.17 17.58
1109 2 14.45 11.15 4.97
1110 2 13.13 12.11 4.89
1111 2 5.45 1.91 9.85
1112 2 5.52 2.92 8.56
1113 2 9.62 15.28 4.25
1114 2 10.04 14.76 5.75
1115 2 17.33 10.51 7.97
1116 2 17.43 10.77 9.58
1117 2 12.33 14.73 15.7
1118 2 11.75 15.24 14.26
1119 2 4.03 9.82 2
1120 2 2.94 8.61 1.93
1121 2 14.53 6.7 8.03
1122 2 15.38 7.94 7.41
1123 2 4.11 12.67 16.41
1124 2 3.98 12.48 18.03
1125 2 10.51 17.14 2.87
1126 2 11.42 17.32 1.52
1127 2 16 14.71 0.71
1128 2 15.56 13.14 0.69
1129 2 4.97 17.82 4.09
1130 2 5.4 17.36 2.58
1131 2 13.76 0.7 3.36
1132 2 14.99 1.23 4.3
1133 2 10.2 16.41 9.25
1134 2 8.91 16.58 8.27
1135 2 4.27 6.1 4.77
1136 2 2.88 6.89 5.13
1137 2 15.42 2.59 18.21
1138 2 14.75 1.53 17.17
1139 2 7.12 1 1.24
1140 2 5.83 1.05 0.24
1141 2 8.48 2.03 17.92
1142 2 7.08 2.83 18.14
1143 2 8.65 14.89 11.01
1144 2 9.49 14.45 12.34
1145 2 13.79 5.47 15.18
1146 2 13.76 6.86 14.34
1147 2 8.93 14.16 8.82
1148 2 7.32 14.04 8.53
1149 2 8.97 4.94 8.03
1150 2 9.7 4.21 9.3
1151 2 4.58 0.65 5.7
1152 2 5.42 1.47 4.57
1153 2 14.66 11.12 0.98
1154 2 13.42 12.15 0.71
1155 2 3.46 1.19 1.5
1156 2 3.59 -0.3 2.16
1157 2 8.87 2.77 4.02
1158 2 10.34 2.34 4.61
1159 2 9.96 6.22 14.67
1160 2 11.57 6.3 14.4
1161 2 12.48 16.44 7.28
1162 2 12.95 15.7 8.66
1163 2 3.88 11.25 8.06
1164 2 4.33 11.24 6.48
1165 2 13.15 18.61 5.27
1166 2 12.21 18.49 6.61
1167 2 9.91 6.31 -0.23
1168 2 10.96 5.75 0.89
1169 2 5.99 1.38 11.84
1170 2 4.73 2.41 11.91
1171 2 8.34 5.26 5.8
1172 2 8.9 3.73 5.89
1173 2 9.45 0.44 6.84
1174 2 9.93 -0.3 8.22
1175 2 13.74 10.89 8.6
1176 2 14.55 12.02 7.75
1177 2 14.36 4.95 9.99
1178 2 15.39 6.06 10.58
1179 2 18.99 7.69 4.41
1180 2 18.19 7.82 2.99
1181 2 4.01 13.7 2.21
1182 2 4.71 14.11 0.79
1183 2 17.63 12.88 6.71
1184 2 16.19 13.64 6.88
1185 2 13.36 5.54 1.59
1186 2 14.81 5.34 0.87
1187 2 5.54 1.97 2.53
1188 2 5.27 3.51 2.97
1189 2 18.45 11.84 15.75
1190 2 17.62 13.19 16.12
1191 2 9.84 13.24 13.95
1192 2 11.47 13.21 13.89
1193 2 16.19 16.63 15.35
1194 2 16.71 15.91 16.71
1195 2 10.71 12.39 11.81
1196 2 10.7 12.32 10.17
1197 2 16.43 11.8 11.38
1198 2 15.52 11.01 10.28
1199 2 9.4 0.69 13.07
1200 2 9.87 1.45 14.44
1201 2 8.81 11.22 17.29
1202 2 10.03 10.36 16.63
1203 2 6.91 10.57 4.67
1204 2 7.89 9.99 3.5
1205 2 4.96 8.25 13.01
1206 2 3.68 7.26 12.78
1207 2 12.95 4.6 13.26
1208 2 11.85 4.03 12.19
1209 2 0.18 16.46 12.97
1210 2 1.62 15.83 13.4
1211 2 3.6 11.83 4.45
1212 2 3.71 10.2 4.41
1213 2 5.78 6.03 7.91
1214 2 6.12 5.71 9.48
1215 2 13.02 14.25 4.28
1216 2 11.57 13.5 4.2
1217 2 13.19 14.58 12.29
1218 2 12.06 13.71 11.51
1219 2 15.51 7 5.45
1220 2 16.32 6.91 4.03
1221 2 3.33 14.66 12.42
1222 2 4.51 15.36 13.32
1223 2 4.7 8.06 15.51
1224 2 4.42 6.63 16.25
1225 2 14.95 8.17 16.65
1226 2 16.47 8.26 16.05
1227 2 10.19 1.9 17.18
1228 2 10.45 0.29 17.13
1229 2 4.62 -0.07 16.7
1230 2 4.38 1.19 17.72
1231 2 6.17 9.59 10.2
1232 2 5.1 8.7 11.06
1233 2 12.85 8.62 9.79
1234 2 13.97 7.7 10.54
1235 2 12.22 4.41 3.29
1236 2 11.8 5.99 3.35
1237 2 0.9 12.61 13.5
1238 2 0.59 14.08 12.87
1239 2 7.91 6.08 9.88
1240 2 7.04 7.3 10.53
1241 2 16.82 9.28 17.65
1242 2 16.66 9.79 19.2
1243 2 16.24 2.91 4.38
1244 2 15.74 4.44 4.14
1245 2 10.38 7.87 10.62
1246 2 9.93 6.71 9.57
1247 2 9.6 16.17 16.12
1248 2 10.19 14.82 16.84
1249 2 18.73 15.45 15.1
1250 2 19.42 15.4 16.58
1251 2 4.26 9.42 18.52
1252 2 3.85 8.51 17.22
1253 2 14.79 1.99 1.48
1254 2 15.62 3.26 2.08
1255 2 13.37 7.45 0.57
1256 2 13.21 8.65 -0.53
1257 2 10.75 12.49 7.94
1258 2 11.3 14.02 8.13
1259 2 4.12 8.46 9.54
1260 2 3.13 7.25 10.01
1261 2 2.87 4.26 9.89
1262 2 4.16 5.14 9.42
1263 2 10.93 4.43 17.42
1264 2 12.31 4.11 16.61
1265 2 11.6 2.71 15.54
1266 2 11.88 2.55 13.94
1267 2 5.7 16.42 9.19
1268 2 5.48 14.89 8.68
1269 2 10.43 7.64 13.24