DPLR conf script

512 atoms
3 atom types
128 bonds
1 bond types

0.0 15.65 xlo xhi
0.0 15.65 ylo yhi
0.0 15.65 zlo zhi

Masses

1 15.999
2 2.014 
3 15.999

Atoms

1 1 1 6 9.42141 7.70122 6.10705
2 2 1 6 10.6724 6.42858 8.85047
3 3 1 6 2.22775 13.7873 11.0025
4 4 1 6 15.1005 10.5119 15.5822
5 5 1 6 9.81487 14.9215 14.4977
6 6 1 6 5.35192 1.49611 5.6371
7 7 1 6 5.52573 13.8645 14.2909
8 8 1 6 3.26523 10.8226 7.25742
9 9 1 6 0.452996 10.4755 4.08837
10 10 1 6 7.94649 13.3015 10.139
11 11 1 6 14.7905 0.840674 10.4466
12 12 1 6 12.4842 14.0971 14.1697
13 13 1 6 11.5061 2.47594 10.2025
14 14 1 6 15.2924 12.1939 11.0579
15 15 1 6 1.99941 7.25356 7.20424
16 16 1 6 10.8629 3.94734 8.18421
17 17 1 6 6.59173 2.41093 15.0972
18 18 1 6 6.64136 8.77065 6.24272
19 19 1 6 12.3708 2.79716 5.83191
20 20 1 6 13.0472 10.9111 4.80205
21 21 1 6 6.87969 2.20354 7.98086
22 22 1 6 9.18076 2.01074 11.9887
23 23 1 6 11.329 6.40472 1.83067
24 24 1 6 12.557 2.72349 12.6614
25 25 1 6 4.75988 10.7904 1.43975
26 26 1 6 6.19878 4.81336 0.228
27 27 1 6 5.67208 1.15354 1.59905
28 28 1 6 13.5219 8.07966 5.48291
29 29 1 6 13.4201 8.52307 11.8111
30 30 1 6 13.4432 5.56132 10.1239
31 31 1 6 5.54326 12.56 7.71529
32 32 1 6 2.46844 3.19227 9.77897
33 33 1 6 5.18253 1.07426 13.2427
34 34 1 6 13.8383 12.5694 3.09329
35 35 1 6 8.87219 9.46036 11.3321
36 36 1 6 3.6741 5.56755 1.51509
37 37 1 6 0.788967 15.4454 6.16148
38 38 1 6 2.4081 14.2731 0.234205
39 39 1 6 15.3359 11.5914 8.25912
40 40 1 6 7.00669 7.54638 2.59779
41 41 1 6 15.3861 3.46734 9.97661
42 42 1 6 10.6531 12.6781 2.63566
43 43 1 6 11.2199 2.92179 1.01943
44 44 1 6 9.24236 6.7285 11.3176
45 45 1 6 5.78897 4.81192 12.1998
46 46 1 6 12.7095 8.42414 8.14129
47 47 1 6 9.6915 1.24922 4.89897
48 48 1 6 13.4927 9.67597 1.88403
49 49 1 6 7.28354 2.12128 3.5908
50 50 1 6 6.10496 8.8061 0.381245
51 51 1 6 12.3762 14.8271 7.39181
52 52 1 6 13.6972 0.870193 14.2026
53 53 1 6 -0.0369016 3.89497 13.6848
54 54 1 6 3.80469 4.88224 7.88596
55 55 1 6 0.444557 5.44186 3.29789
56 56 1 6 14.0611 6.43193 0.144603
57 57 1 6 6.64535 9.48287 12.678
58 58 1 6 2.53355 0.696311 8.46253
59 59 1 6 15.3444 8.59676 8.62404
60 60 1 6 7.89669 9.65189 3.71841
61 61 1 6 15.4259 4.22137 0.952304
62 62 1 6 3.85701 8.09193 11.2792
63 63 1 6 9.44934 1.93939 14.8083
64 64 1 6 1.18908 6.1525 12.7867
65 65 1 6 8.60886 11.0381 9.2328
66 66 1 6 4.75208 7.36913 8.69142
67 67 1 6 5.19912 10.9301 10.9189
68 68 1 6 2.71984 8.74553 14.1405
69 69 1 6 11.1383 10.5295 8.82549
70 70 1 6 8.36594 4.36993 7.25191
71 71 1 6 2.48735 2.63562 14.496
72 72 1 6 9.70649 14.7328 6.61685
73 73 1 6 4.3179 11.3116 13.5501
74 74 1 6 9.69593 14.8246 11.7955
75 75 1 6 11.7018 4.1042 3.48339
76 76 1 6 2.33788 11.4767 15.5116
77 77 1 6 3.97344 8.2362 5.61613
78 78 1 6 5.26025 14.5469 10.4193
79 79 1 6 6.6995 2.21238 11.1803
80 80 1 6 4.20854 4.02505 5.50205
81 81 1 6 4.84369 14.2236 1.44035
82 82 1 6 5.22953 14.7387 4.18414
83 83 1 6 9.47603 4.84945 4.9211
84 84 1 6 14.9991 8.23716 14.2523
85 85 1 6 12.7713 12.1281 7.38938
86 86 1 6 11.0122 15.4069 3.07435
87 87 1 6 7.03419 5.81754 9.94797
88 88 1 6 12.0465 6.42713 12.5851
89 89 1 6 6.7872 12.0439 2.60294
90 90 1 6 13.0269 13.0858 11.5496
91 91 1 6 3.13205 2.82592 1.46035
92 92 1 6 0.887036 8.36599 11.1061
93 93 1 6 0.628855 15.0547 2.40418
94 94 1 6 13.8782 15.5523 3.14171
95 95 1 6 4.84582 6.28761 3.73666
96 96 1 6 11.5196 10.179 11.7322
97 97 1 6 3.26331 4.08673 12.2376
98 98 1 6 2.72974 15.3585 13.3303
99 99 1 6 1.30873 12.0894 6.03026
100 100 1 6 2.00408 8.0076 0.957852
101 101 1 6 13.9604 1.97256 1.15722
102 102 1 6 4.95701 15.3468 7.90115
103 103 1 6 13.2657 12.4095 0.422561
104 104 1 6 2.83052 10.7136 9.7533
105 105 1 6 10.8169 9.02786 1.86111
106 106 1 6 10.3204 11.0312 0.33706
107 107 1 6 1.5355 3.5698 5.13538
108 108 1 6 0.319816 7.90009 4.69029
109 109 1 6 2.45334 14.246 4.48398
110 110 1 6 7.65858 15.0835 7.87114
111 111 1 6 14.0401 0.749184 5.86352
112 112 1 6 7.78198 12.9306 0.28601
113 113 1 6 0.560448 0.946227 13.1822
114 114 1 6 5.24424 7.22967 13.5419
115 115 1 6 14.0348 5.51456 4.97589
116 116 1 6 1.02609 2.09053 3.07713
117 117 1 6 10.6129 9.53026 4.36432
118 118 1 6 3.07856 9.52384 3.35431
119 119 1 6 12.1116 15.235 10.1172
120 120 1 6 7.96402 10.5212 15.0515
121 121 1 6 8.21098 4.96235 14.1273
122 122 1 6 1.05434 10.7367 13.0759
123 123 1 6 7.51809 11.2393 6.81398
124 124 1 6 8.65808 12.5304 4.81914
125 125 1 6 15.2914 3.24806 7.15687
126 126 1 6 10.8492 5.42373 14.9774
127 127 1 6 8.43613 5.37067 2.38155
128 128 1 6 0.344558 14.4899 8.83727
129 129 2 1 5.15577 14.7408 14.1007
130 130 2 1 1.31702 0.379974 13.0056
131 131 2 1 5.26998 13.4579 7.9458
132 132 2 1 0.156171 10.4996 3.18003
133 133 2 1 3.24471 4.29192 8.48518
134 134 2 1 5.11591 15.1744 1.40011
135 135 2 1 7.58253 9.33174 12.3677
136 136 2 1 10.4324 10.1996 0.836982
137 137 2 1 10.4676 12.2804 1.8034
138 138 2 1 9.01706 5.26878 4.15201
139 139 2 1 12.8996 2.01786 13.1974
140 140 2 1 11.4196 14.9681 7.32448
141 141 2 1 2.37168 13.5149 5.16029
142 142 2 1 13.3064 9.93357 4.8946
143 143 2 1 15.2354 11.8923 10.1435
144 144 2 1 1.92033 5.57221 12.4277
145 145 2 1 1.26862 7.50117 7.81861
146 146 2 1 5.33685 5.18763 0.569197
147 147 2 1 12.8662 2.0176 5.52578
148 148 2 1 10.7968 14.4993 2.85606
149 149 2 1 1.34118 13.5053 10.7643
150 150 2 1 9.44144 2.36561 13.9235
151 151 2 1 11.6562 3.77171 2.5677
152 152 2 1 -0.016124 11.5033 11.6415
153 153 2 1 15.4436 3.86269 14.6564
154 154 2 1 9.70903 9.78612 11.5973
155 155 2 1 6.3387 7.18947 3.19734
156 156 2 1 1.37117 15.1214 5.47953
157 157 2 1 13.2354 6.52195 0.656367
158 158 2 1 7.00198 8.97183 5.37908
159 159 2 1 9.62558 0.972992 14.8176
160 160 2 1 3.43017 0.47517 8.12376
161 161 2 1 13.7022 12.5383 2.15947
162 162 2 1 6.36514 3.30608 15.3561
163 163 2 1 15.0657 2.5553 10.2605
164 164 2 1 2.36434 6.30404 7.45982
165 165 2 1 1.43837 0.195849 6.79935
166 166 2 1 9.81358 6.5848 10.5369
167 167 2 1 2.52942 14.8259 15.0811
168 168 2 1 12.152 7.67766 8.4
169 169 2 1 3.3581 14.2149 0.55865
170 170 2 1 7.76508 6.29283 10.4488
171 171 2 1 13.8143 13.5287 3.22196
172 172 2 1 14.8198 15.4032 3.0263
173 173 2 1 14.3873 11.8308 8.00533
174 174 2 1 11.6024 12.6048 2.70612
175 175 2 1 12.8202 5.67671 10.8769
176 176 2 1 5.55314 9.6024 0.72976
177 177 2 1 13.9034 12.6043 11.4146
178 178 2 1 12.058 2.47336 0.946293
179 179 2 1 13.8923 8.82647 2.08826
180 180 2 1 14.6558 4.08294 9.88377
181 181 2 1 11.5921 14.3575 14.359
182 182 2 1 13.2776 3.3686 12.9005
183 183 2 1 12.3884 13.8271 7.13631
184 184 2 1 9.43859 6.75296 5.85862
185 185 2 1 10.1496 0.975253 4.05912
186 186 2 1 11.0914 3.43294 9.07205
187 187 2 1 14.4036 5.59038 0.445325
188 188 2 1 14.1121 10.0341 1.1647
189 189 2 1 6.47577 8.78386 13.2924
190 190 2 1 1.025 4.78302 3.79608
191 191 2 1 11.4309 1.55779 10.0291
192 192 2 1 3.03551 3.76046 11.3613
193 193 2 1 3.97954 5.50116 2.43563
194 194 2 1 2.92683 3.16003 13.7643
195 195 2 1 5.89046 5.53752 12.8412
196 196 2 1 0.908986 15.2729 1.45356
197 197 2 1 10.3574 1.91592 5.22768
198 198 2 1 14.4883 0.731957 13.7161
199 199 2 1 6.35188 8.3704 1.26562
200 200 2 1 15.377 9.49507 8.34291
201 201 2 1 8.78748 9.86186 4.10498
202 202 2 1 12.2508 14.974 9.20452
203 203 2 1 0.0720166 4.57453 1.82936
204 204 2 1 8.3468 11.9205 9.55237
205 205 2 1 10.6878 9.17536 2.83088
206 206 2 1 8.12565 10.9732 8.35812
207 207 2 1 11.0018 4.50568 15.2226
208 208 2 1 0.838915 6.3103 3.51263
209 209 2 1 2.50771 8.3465 15.0516
210 210 2 1 1.72497 2.28369 2.38684
211 211 2 1 10.7094 2.63266 0.282113
212 212 2 1 2.17865 9.83734 3.65719
213 213 2 1 5.4433 14.6857 11.3441
214 214 2 1 1.89111 1.93698 14.139
215 215 2 1 0.13323 7.7101 13.9938
216 216 2 1 15.0749 3.34519 1.16293
217 217 2 1 10.2317 10.7875 8.88119
218 218 2 1 4.84475 8.53019 5.94974
219 219 2 1 8.5211 4.26531 6.2967
220 220 2 1 7.38688 8.42385 2.9976
221 221 2 1 2.86448 8.09177 11.1692
222 222 2 1 3.26141 4.69736 1.36652
223 223 2 1 4.93416 11.4243 12.7356
224 224 2 1 4.37194 6.5011 8.36651
225 225 2 1 5.70502 7.14125 8.8735
226 226 2 1 0.256458 11.8284 7.51527
227 227 2 1 11.2517 10.3941 9.78327
228 228 2 1 5.30366 14.0025 4.82569
229 229 2 1 5.78837 11.5607 10.4619
230 230 2 1 12.306 9.55581 11.7161
231 231 2 1 9.18412 14.4993 15.0695
232 232 2 1 2.78332 11.4156 14.665
233 233 2 1 3.41414 14.5276 4.39591
234 234 2 1 2.23587 12.4751 -0.00822237
235 235 2 1 9.58445 0.105724 11.6541
236 236 2 1 5.929 11.6729 2.23319
237 237 2 1 6.38387 2.3124 10.2015
238 238 2 1 7.9971 14.0242 9.44155
239 239 2 1 3.45417 8.01454 6.39374
240 240 2 1 2.3536 15.7483 9.16927
241 241 2 1 9.79688 15.4172 5.88118
242 242 2 1 3.3091 3.91529 5.28427
243 243 2 1 10.5973 14.6283 11.5966
244 244 2 1 6.13538 14.0727 10.2075
245 245 2 1 10.2421 4.49631 4.43338
246 246 2 1 9.22885 7.73154 11.2556
247 247 2 1 12.122 11.5635 7.91316
248 248 2 1 7.54465 2.91345 7.78177
249 249 2 1 3.36182 0.397081 13.3033
250 250 2 1 3.92336 2.3367 1.56941
251 251 2 1 13.0055 7.74188 12.1961
252 252 2 1 15.1376 9.69984 15.0152
253 253 2 1 5.31965 14.5695 3.24531
254 254 2 1 2.38769 8.08679 13.5233
255 255 2 1 14.0069 11.8587 0.0571089
256 256 2 1 0.256486 8.38227 10.3727
257 257 2 1 0.510084 14.8355 7.94103
258 258 2 1 3.06646 10.5445 8.18616
259 259 2 1 6.36545 5.31252 15.0961
260 260 2 1 0.710837 7.48981 11.5077
261 261 2 1 11.1937 6.92071 12.5118
262 262 2 1 7.40902 5.03448 9.55993
263 263 2 1 9.92024 2.34742 11.4195
264 264 2 1 2.82135 2.72044 0.554323
265 265 2 1 0.995326 9.838 13.3925
266 266 2 1 2.11225 11.5921 6.42944
267 267 2 1 5.80983 10.3269 11.4607
268 268 2 1 10.5783 5.86786 2.04287
269 269 2 1 7.17784 12.4827 1.82482
270 270 2 1 12.8338 13.1092 12.5481
271 271 2 1 2.52103 7.24244 1.11459
272 272 2 1 6.66735 3.04798 11.626
273 273 2 1 4.2207 6.86961 4.1622
274 274 2 1 0.989329 11.4522 5.30291
275 275 2 1 2.70986 12.9839 10.8208
276 276 2 1 14.1678 1.25983 1.7928
277 277 2 1 5.83243 15.6136 7.55426
278 278 2 1 1.49996 14.8355 2.79828
279 279 2 1 9.30813 4.3926 7.56939
280 280 2 1 5.099 7.75515 14.2915
281 281 2 1 4.20512 7.84965 10.3481
282 282 2 1 5.04218 15.2849 8.85458
283 283 2 1 8.08878 1.68488 3.98959
284 284 2 1 4.08598 10.3564 13.4267
285 285 2 1 13.8305 0.691707 10.5021
286 286 2 1 4.18022 4.43635 12.1026
287 287 2 1 2.20047 8.46765 1.79712
288 288 2 1 5.1539 5.60234 4.35281
289 289 2 1 13.7479 0.272274 4.0664
290 290 2 1 11.9942 11.0267 11.8928
291 291 2 1 1.30247 2.82313 4.57246
292 292 2 1 4.75843 12.0151 7.57541
293 293 2 1 8.46665 15.1523 7.29335
294 294 2 1 6.82891 11.9316 6.87048
295 295 2 1 2.22365 10.0422 10.0956
296 296 2 1 14.9885 0.558254 5.87492
297 297 2 1 5.31205 13.7177 0.715953
298 298 2 1 11.9816 2.56892 11.0247
299 299 2 1 15.0487 7.79251 4.96916
300 300 2 1 14.8273 5.61985 4.35126
301 301 2 1 11.2745 10.1053 4.69647
302 302 2 1 0.396101 1.31152 12.3541
303 303 2 1 8.37572 5.18292 13.1938
304 304 2 1 14.3254 5.09548 5.82967
305 305 2 1 0.76905 7.60055 5.58387
306 306 2 1 7.60189 10.5147 3.30526
307 307 2 1 12.1772 9.26262 8.30247
308 308 2 1 7.52048 0.322841 8.19605
309 309 2 1 7.27102 13.2604 15.1504
310 310 2 1 13.9263 1.61386 0.24342
311 311 2 1 14.3864 8.38948 8.50527
312 312 2 1 1.91071 10.725 12.6513
313 313 2 1 4.49407 3.1028 5.37952
314 314 2 1 9.58088 10.8699 15.4501
315 315 2 1 8.12171 11.444 6.10779
316 316 2 1 15.5593 3.10001 8.09046
317 317 2 1 1.08986 3.54344 6.01426
318 318 2 1 14.6658 7.59607 14.8645
319 319 2 1 6.04955 5.24701 11.3699
320 320 2 1 14.6695 2.56455 6.88537
321 321 2 1 8.14291 12.0597 0.00304865
322 322 2 1 2.98073 14.6899 12.6838
323 323 2 1 7.48521 2.15485 14.8821
324 324 2 1 7.34935 9.83984 -0.156898
325 325 2 1 3.52314 10.7007 10.4188
326 326 2 1 12.4911 3.34749 5.05118
327 327 2 1 4.69129 7.61887 12.8399
328 328 2 1 7.68827 4.90715 1.78444
329 329 2 1 4.02239 4.45552 6.99721
330 330 2 1 10.3837 8.87385 5.01014
331 331 2 1 9.04331 5.19589 14.5811
332 332 2 1 8.50064 7.85574 6.45076
333 333 2 1 11.0586 5.91327 0.0948578
334 334 2 1 13.1766 15.7176 14.1721
335 335 2 1 9.56905 14.8212 13.5502
336 336 2 1 4.90847 13.1003 14.1311
337 337 2 1 4.97913 0.607618 5.42036
338 338 2 1 0.361326 9.52705 4.37582
339 339 2 1 9.57096 13.884 6.135
340 340 2 1 8.10614 6.31604 2.42386
341 341 2 1 3.48572 10.0007 6.7402
342 342 2 1 13.5186 7.14736 5.24469
343 343 2 1 6.29596 1.32407 2.34828
344 344 2 1 13.5381 11.41 4.07515
345 345 2 1 7.62559 3.00511 3.30004
346 346 2 1 15.3285 13.7837 8.69641
347 347 2 1 0.328418 10.956 15.5241
348 348 2 1 12.372 14.4358 10.6052
349 349 2 1 8.44172 13.7103 10.9046
350 350 2 1 6.09968 1.61485 5.05428
351 351 2 1 12.9238 13.6682 14.8665
352 352 2 1 4.1219 10.3925 2.06834
353 353 2 1 8.67192 9.92881 10.4361
354 354 2 1 11.0686 5.57013 8.52698
355 355 2 1 11.4575 3.52593 7.58875
356 356 2 1 12.6429 4.31948 3.5772
357 357 2 1 0.693602 5.45402 13.2351
358 358 2 1 11.7374 9.32111 1.78984
359 359 2 1 13.2321 8.10086 6.40605
360 360 2 1 2.62995 2.29725 9.39783
361 361 2 1 6.68529 9.61522 6.73069
362 362 2 1 0.68971 3.18772 13.7137
363 363 2 1 11.9834 15.3711 2.89602
364 364 2 1 5.26569 1.59976 12.4526
365 365 2 1 7.87021 12.6354 4.2257
366 366 2 1 13.9093 6.38152 10.1224
367 367 2 1 10.1863 6.62311 8.01519
368 368 2 1 11.0422 7.36343 1.98843
369 369 2 1 9.31723 12.4575 4.06833
370 370 2 1 13.6157 15.7758 6.47293
371 371 2 1 12.4373 11.8996 0.146264
372 372 2 1 5.68369 1.57556 13.9615
373 373 2 1 6.13089 2.15391 7.35639
374 374 2 1 3.54122 9.35488 4.21916
375 375 2 1 12.9626 11.588 6.4914
376 376 2 1 8.35148 2.13712 11.4445
377 377 2 1 0.982355 1.11151 2.93142
378 378 2 1 11.939 5.91077 13.36
379 379 2 1 7.57735 10.7752 14.217
380 380 2 1 6.29499 1.39172 0.864555
381 381 2 1 1.49659 3.25687 9.88888
382 382 2 1 4.03599 11.1335 0.878345
383 383 2 1 14.1067 8.69915 12.4399
384 384 2 1 15.1697 0.092451 9.98994
385 1 3 -8.0 9.42141 7.70122 6.10705
386 2 3 -8.0 10.6724 6.42858 8.85047
387 3 3 -8.0 2.22775 13.7873 11.0025
388 4 3 -8.0 15.1005 10.5119 15.5822
389 5 3 -8.0 9.81487 14.9215 14.4977
390 6 3 -8.0 5.35192 1.49611 5.6371
391 7 3 -8.0 5.52573 13.8645 14.2909
392 8 3 -8.0 3.26523 10.8226 7.25742
393 9 3 -8.0 0.452996 10.4755 4.08837
394 10 3 -8.0 7.94649 13.3015 10.139
395 11 3 -8.0 14.7905 0.840674 10.4466
396 12 3 -8.0 12.4842 14.0971 14.1697
397 13 3 -8.0 11.5061 2.47594 10.2025
398 14 3 -8.0 15.2924 12.1939 11.0579
399 15 3 -8.0 1.99941 7.25356 7.20424
400 16 3 -8.0 10.8629 3.94734 8.18421
401 17 3 -8.0 6.59173 2.41093 15.0972
402 18 3 -8.0 6.64136 8.77065 6.24272
403 19 3 -8.0 12.3708 2.79716 5.83191
404 20 3 -8.0 13.0472 10.9111 4.80205
405 21 3 -8.0 6.87969 2.20354 7.98086
406 22 3 -8.0 9.18076 2.01074 11.9887
407 23 3 -8.0 11.329 6.40472 1.83067
408 24 3 -8.0 12.557 2.72349 12.6614
409 25 3 -8.0 4.75988 10.7904 1.43975
410 26 3 -8.0 6.19878 4.81336 0.228
411 27 3 -8.0 5.67208 1.15354 1.59905
412 28 3 -8.0 13.5219 8.07966 5.48291
413 29 3 -8.0 13.4201 8.52307 11.8111
414 30 3 -8.0 13.4432 5.56132 10.1239
415 31 3 -8.0 5.54326 12.56 7.71529
416 32 3 -8.0 2.46844 3.19227 9.77897
417 33 3 -8.0 5.18253 1.07426 13.2427
418 34 3 -8.0 13.8383 12.5694 3.09329
419 35 3 -8.0 8.87219 9.46036 11.3321
420 36 3 -8.0 3.6741 5.56755 1.51509
421 37 3 -8.0 0.788967 15.4454 6.16148
422 38 3 -8.0 2.4081 14.2731 0.234205
423 39 3 -8.0 15.3359 11.5914 8.25912
424 40 3 -8.0 7.00669 7.54638 2.59779
425 41 3 -8.0 15.3861 3.46734 9.97661
426 42 3 -8.0 10.6531 12.6781 2.63566
427 43 3 -8.0 11.2199 2.92179 1.01943
428 44 3 -8.0 9.24236 6.7285 11.3176
429 45 3 -8.0 5.78897 4.81192 12.1998
430 46 3 -8.0 12.7095 8.42414 8.14129
431 47 3 -8.0 9.6915 1.24922 4.89897
432 48 3 -8.0 13.4927 9.67597 1.88403
433 49 3 -8.0 7.28354 2.12128 3.5908
434 50 3 -8.0 6.10496 8.8061 0.381245
435 51 3 -8.0 12.3762 14.8271 7.39181
436 52 3 -8.0 13.6972 0.870193 14.2026
437 53 3 -8.0 -0.0369016 3.89497 13.6848
438 54 3 -8.0 3.80469 4.88224 7.88596
439 55 3 -8.0 0.444557 5.44186 3.29789
440 56 3 -8.0 14.0611 6.43193 0.144603
441 57 3 -8.0 6.64535 9.48287 12.678
442 58 3 -8.0 2.53355 0.696311 8.46253
443 59 3 -8.0 15.3444 8.59676 8.62404
444 60 3 -8.0 7.89669 9.65189 3.71841
445 61 3 -8.0 15.4259 4.22137 0.952304
446 62 3 -8.0 3.85701 8.09193 11.2792
447 63 3 -8.0 9.44934 1.93939 14.8083
448 64 3 -8.0 1.18908 6.1525 12.7867
449 65 3 -8.0 8.60886 11.0381 9.2328
450 66 3 -8.0 4.75208 7.36913 8.69142
451 67 3 -8.0 5.19912 10.9301 10.9189
452 68 3 -8.0 2.71984 8.74553 14.1405
453 69 3 -8.0 11.1383 10.5295 8.82549
454 70 3 -8.0 8.36594 4.36993 7.25191
455 71 3 -8.0 2.48735 2.63562 14.496
456 72 3 -8.0 9.70649 14.7328 6.61685
457 73 3 -8.0 4.3179 11.3116 13.5501
458 74 3 -8.0 9.69593 14.8246 11.7955
459 75 3 -8.0 11.7018 4.1042 3.48339
460 76 3 -8.0 2.33788 11.4767 15.5116
461 77 3 -8.0 3.97344 8.2362 5.61613
462 78 3 -8.0 5.26025 14.5469 10.4193
463 79 3 -8.0 6.6995 2.21238 11.1803
464 80 3 -8.0 4.20854 4.02505 5.50205
465 81 3 -8.0 4.84369 14.2236 1.44035
466 82 3 -8.0 5.22953 14.7387 4.18414
467 83 3 -8.0 9.47603 4.84945 4.9211
468 84 3 -8.0 14.9991 8.23716 14.2523
469 85 3 -8.0 12.7713 12.1281 7.38938
470 86 3 -8.0 11.0122 15.4069 3.07435
471 87 3 -8.0 7.03419 5.81754 9.94797
472 88 3 -8.0 12.0465 6.42713 12.5851
473 89 3 -8.0 6.7872 12.0439 2.60294
474 90 3 -8.0 13.0269 13.0858 11.5496
475 91 3 -8.0 3.13205 2.82592 1.46035
476 92 3 -8.0 0.887036 8.36599 11.1061
477 93 3 -8.0 0.628855 15.0547 2.40418
478 94 3 -8.0 13.8782 15.5523 3.14171
479 95 3 -8.0 4.84582 6.28761 3.73666
480 96 3 -8.0 11.5196 10.179 11.7322
481 97 3 -8.0 3.26331 4.08673 12.2376
482 98 3 -8.0 2.72974 15.3585 13.3303
483 99 3 -8.0 1.30873 12.0894 6.03026
484 100 3 -8.0 2.00408 8.0076 0.957852
485 101 3 -8.0 13.9604 1.97256 1.15722
486 102 3 -8.0 4.95701 15.3468 7.90115
487 103 3 -8.0 13.2657 12.4095 0.422561
488 104 3 -8.0 2.83052 10.7136 9.7533
489 105 3 -8.0 10.8169 9.02786 1.86111
490 106 3 -8.0 10.3204 11.0312 0.33706
491 107 3 -8.0 1.5355 3.5698 5.13538
492 108 3 -8.0 0.319816 7.90009 4.69029
493 109 3 -8.0 2.45334 14.246 4.48398
494 110 3 -8.0 7.65858 15.0835 7.87114
495 111 3 -8.0 14.0401 0.749184 5.86352
496 112 3 -8.0 7.78198 12.9306 0.28601
497 113 3 -8.0 0.560448 0.946227 13.1822
498 114 3 -8.0 5.24424 7.22967 13.5419
499 115 3 -8.0 14.0348 5.51456 4.97589
500 116 3 -8.0 1.02609 2.09053 3.07713
501 117 3 -8.0 10.6129 9.53026 4.36432
502 118 3 -8.0 3.07856 9.52384 3.35431
503 119 3 -8.0 12.1116 15.235 10.1172
504 120 3 -8.0 7.96402 10.5212 15.0515
505 121 3 -8.0 8.21098 4.96235 14.1273
506 122 3 -8.0 1.05434 10.7367 13.0759
507 123 3 -8.0 7.51809 11.2393 6.81398
508 124 3 -8.0 8.65808 12.5304 4.81914
509 125 3 -8.0 15.2914 3.24806 7.15687
510 126 3 -8.0 10.8492 5.42373 14.9774
511 127 3 -8.0 8.43613 5.37067 2.38155
512 128 3 -8.0 0.344558 14.4899 8.83727

Bonds

1 1 1 385
2 1 2 386
3 1 3 387
4 1 4 388
5 1 5 389
6 1 6 390
7 1 7 391
8 1 8 392
9 1 9 393
10 1 10 394
11 1 11 395
12 1 12 396
13 1 13 397
14 1 14 398
15 1 15 399
16 1 16 400
17 1 17 401
18 1 18 402
19 1 19 403
20 1 20 404
21 1 21 405
22 1 22 406
23 1 23 407
24 1 24 408
25 1 25 409
26 1 26 410
27 1 27 411
28 1 28 412
29 1 29 413
30 1 30 414
31 1 31 415
32 1 32 416
33 1 33 417
34 1 34 418
35 1 35 419
36 1 36 420
37 1 37 421
38 1 38 422
39 1 39 423
40 1 40 424
41 1 41 425
42 1 42 426
43 1 43 427
44 1 44 428
45 1 45 429
46 1 46 430
47 1 47 431
48 1 48 432
49 1 49 433
50 1 50 434
51 1 51 435
52 1 52 436
53 1 53 437
54 1 54 438
55 1 55 439
56 1 56 440
57 1 57 441
58 1 58 442
59 1 59 443
60 1 60 444
61 1 61 445
62 1 62 446
63 1 63 447
64 1 64 448
65 1 65 449
66 1 66 450
67 1 67 451
68 1 68 452
69 1 69 453
70 1 70 454
71 1 71 455
72 1 72 456
73 1 73 457
74 1 74 458
75 1 75 459
76 1 76 460
77 1 77 461
78 1 78 462
79 1 79 463
80 1 80 464
81 1 81 465
82 1 82 466
83 1 83 467
84 1 84 468
85 1 85 469
86 1 86 470
87 1 87 471
88 1 88 472
89 1 89 473
90 1 90 474
91 1 91 475
92 1 92 476
93 1 93 477
94 1 94 478
95 1 95 479
96 1 96 480
97 1 97 481
98 1 98 482
99 1 99 483
100 1 100 484
101 1 101 485
102 1 102 486
103 1 103 487
104 1 104 488
105 1 105 489
106 1 106 490
107 1 107 491
108 1 108 492
109 1 109 493
110 1 110 494
111 1 111 495
112 1 112 496
113 1 113 497
114 1 114 498
115 1 115 499
116 1 116 500
117 1 117 501
118 1 118 502
119 1 119 503
120 1 120 504
121 1 121 505
122 1 122 506
123 1 123 507
124 1 124 508
125 1 125 509
126 1 126 510
127 1 127 511
128 1 128 512
